/*--------------------------------*- C++ -*----------------------------------*\
| =========                 |                                                 |
| \\      /  F ield         | OpenFOAM: The Open Source CFD Toolbox           |
|  \\    /   O peration     | Version:  2.1.x                                 |
|   \\  /    A nd           | Web:      www.OpenFOAM.org                      |
|    \\/     M anipulation  |                                                 |
\*---------------------------------------------------------------------------*/
FoamFile
{
    version     2.0;
    format      ascii;
    class       surfaceScalarField;
    location    "0.2";
    object      phi;
}
// * * * * * * * * * * * * * * * * * * * * * * * * * * * * * * * * * * * * * //

dimensions      [1 1 -1 0 0 0 0];

internalField   nonuniform List<scalar> 
5536
(
1.232198784e-10
-4.34242747e-10
-1.203079572e-10
1.769923694e-10
-9.578515506e-10
-6.730894893e-11
3.39258386e-11
-5.62096231e-10
7.123556525e-12
-3.898100408e-11
-3.417957166e-10
4.514497224e-11
-6.670936454e-11
-3.584839257e-10
-1.284054589e-09
-5.201626861e-10
3.3945279e-10
-7.909117311e-10
-1.120504225e-10
5.711291909e-10
1.538455224e-10
-6.471313409e-10
-1.542932691e-10
5.799846855e-10
1.206405943e-10
-7.928210003e-10
-8.268345675e-11
4.741217524e-10
7.23105222e-11
-5.497122584e-10
-9.542435322e-11
1.49096302e-09
2.136190261e-10
-1.845323916e-09
3.125103732e-11
6.068996267e-10
-4.011602469e-11
-6.991355255e-10
2.19151621e-11
2.963652858e-10
-3.830522427e-11
-2.582437878e-10
3.818254915e-11
1.883332313e-10
-2.83533984e-11
-1.476813333e-10
2.044391118e-11
3.142968563e-10
-8.778512369e-12
-2.778831541e-10
2.667318176e-11
2.358357239e-10
-1.868351975e-10
1.741999835e-11
-4.100852033e-11
-4.862275416e-11
-1.829288291e-10
8.015196273e-11
-9.039316961e-10
-5.955391385e-10
1.042738601e-09
4.155487405e-10
-4.976555321e-10
-3.660425728e-10
6.70546389e-10
3.134327474e-10
-4.4432025e-10
-2.868572792e-10
6.610391566e-10
2.7181335e-10
-5.543983546e-10
-2.549306212e-10
7.717496798e-10
2.513679552e-10
-8.859797426e-10
-2.829886741e-10
1.232998819e-09
2.288798737e-10
-2.00709801e-09
-1.250453956e-10
6.843397653e-10
1.015926362e-10
-8.207855192e-10
-1.258989887e-10
1.783833552e-09
1.432560285e-10
-1.488698629e-09
1.203364347e-10
8.074809878e-10
-1.648201966e-10
-8.870948366e-10
6.547626551e-11
2.293607707e-10
-3.945520365e-11
-2.094832422e-10
3.244032813e-11
1.154629218e-10
-2.378018798e-11
-9.137559095e-11
1.63314498e-11
2.258787058e-10
-1.177848292e-11
-1.690663656e-10
2.094183582e-11
1.698635572e-10
-3.422235872e-11
-1.526493307e-10
5.093923868e-11
1.696805244e-10
-6.280332036e-11
-1.556837283e-10
6.942486283e-11
1.719909223e-10
-7.109838184e-11
-1.167277746e-10
7.800694605e-11
-2.218877545e-10
1.856921097e-10
-9.0586512e-11
8.824663599e-10
-7.440344043e-10
-6.234971375e-10
5.136871303e-10
3.713703883e-10
-3.670718362e-10
-2.543472358e-10
3.130509292e-10
1.911601051e-10
-2.192971685e-10
-1.595315257e-10
2.989754516e-10
1.528189038e-10
-2.032968819e-10
-1.651159869e-10
4.429995634e-10
1.911655777e-10
-3.224821366e-10
-2.284533639e-10
8.857840792e-10
2.745807827e-10
-7.135515e-10
-2.999579598e-10
2.933126434e-09
1.877717877e-10
-3.435634657e-09
-1.028939969e-10
8.910822764e-10
1.492662474e-10
-8.609191639e-10
-1.890982123e-10
1.108876323e-09
1.117483814e-10
-7.424752574e-10
4.629773162e-11
9.025409578e-10
-1.423782968e-10
-8.566620689e-10
1.038169268e-10
1.953052028e-10
-4.826964304e-11
-1.823874051e-10
3.155036228e-11
7.381197938e-11
-2.075770476e-11
-6.058682136e-11
1.242650311e-11
1.171480283e-10
-7.894896099e-12
-7.629741572e-11
1.47448983e-11
1.36337477e-10
-2.608382398e-11
-1.207213946e-10
4.306987378e-11
1.339121034e-10
-6.932470694e-11
-1.013670844e-10
5.583171845e-11
7.876393978e-11
-4.387168215e-11
-5.319326719e-11
3.796012763e-11
1.341668715e-10
-4.122044655e-11
-8.502613804e-11
6.620074003e-11
9.557941735e-10
-4.626184657e-10
3.283494361e-10
-1.569888654e-10
-5.957868268e-10
-6.692982151e-10
1.409521735e-09
1.533564038e-09
-1.359184249e-09
-9.290557126e-10
6.261292884e-10
6.086714198e-10
-7.330630225e-10
-4.147775971e-10
3.399312758e-10
2.845542165e-10
-4.085464411e-10
-1.931733692e-10
1.901403569e-10
1.312218152e-10
-2.180107874e-10
-9.870937877e-11
1.60531276e-10
9.140998118e-11
-1.907805572e-10
-9.658851349e-11
2.207862327e-10
1.054752435e-10
-1.855148978e-10
-1.186783881e-10
4.413436214e-10
1.245166451e-10
-2.054194243e-10
-9.363070632e-11
3.096354359e-09
-7.258124594e-11
-2.24018119e-09
2.894630747e-10
7.806205229e-10
4.229912723e-11
-7.273645043e-10
-1.070500417e-10
4.511864956e-10
5.579355477e-11
-2.596097093e-10
4.244655306e-12
7.747217136e-10
-6.914511894e-11
-6.799904343e-10
9.090916334e-11
1.674026604e-10
-5.075989421e-11
-1.487488552e-10
3.101689581e-11
4.963715902e-11
-1.803580128e-11
-3.971991073e-11
9.649553383e-12
4.776334447e-11
-5.272344674e-12
-2.942296043e-11
9.348762577e-12
1.039426207e-10
-1.953500979e-11
-8.288260722e-11
2.98212174e-11
6.249120174e-11
-4.720317617e-11
-3.531966155e-11
2.898380574e-11
3.810127399e-11
-2.133532791e-11
-3.163034044e-11
2.001173957e-11
6.347732808e-11
-2.30596029e-11
-5.628098949e-11
3.226446244e-11
2.924671034e-10
-6.646284459e-11
-1.90427457e-10
1.455038161e-10
3.47423895e-10
-2.138188195e-10
-2.175060238e-10
2.164637359e-10
-1.338360847e-10
-1.528148898e-10
2.078645749e-09
2.774249193e-09
-3.181974351e-09
-2.702263401e-09
1.836356375e-09
2.323078402e-09
-2.724786673e-09
-1.80345965e-09
1.081817209e-09
1.303741584e-09
-1.556647212e-09
-8.835758523e-10
5.560633748e-10
5.641156676e-10
-7.703325725e-10
-3.509426604e-10
2.994260888e-10
2.357435925e-10
-4.384542174e-10
-1.976267802e-10
3.043893489e-10
1.941063636e-10
-4.822264823e-10
-1.755461646e-10
2.473144894e-10
1.281296442e-10
-3.779771246e-10
-6.858325693e-11
8.580782985e-11
2.556271538e-11
-6.708625471e-11
3.719505872e-12
1.386056167e-09
-9.077694694e-11
-8.138691801e-10
3.214085249e-10
7.656565386e-10
-2.212141932e-10
-8.004761781e-10
-4.478292574e-11
1.514504462e-10
2.4342716e-11
-9.508298236e-11
-3.717064097e-12
5.854520212e-10
-2.982318751e-11
-4.979752862e-10
7.030610309e-11
1.260960779e-10
-4.668837899e-11
-1.002754602e-10
2.616021036e-11
3.050562301e-11
-1.323707451e-11
-2.224629952e-11
6.640731838e-12
1.821903677e-11
-3.55733068e-12
-1.156538061e-11
4.392724883e-12
5.89676675e-11
-1.209156898e-11
-3.8567677e-11
1.675785341e-11
2.434173741e-11
-1.705484311e-11
-1.854077144e-11
1.305120339e-11
3.056627858e-11
-1.451562767e-11
-3.191604975e-11
1.82735472e-11
5.405169749e-11
-2.236233255e-11
-5.170098567e-11
2.69664192e-11
1.295931304e-10
-3.9359844e-11
-1.01224385e-10
7.085481971e-11
1.695183428e-10
-1.152281266e-10
-1.643183059e-10
1.432262877e-10
1.478595482e-10
-1.451771191e-10
-1.662340762e-10
1.26721452e-10
-6.994626416e-11
-8.883097975e-11
2.575217411e-09
-3.745104807e-09
-5.72238988e-09
6.407991109e-09
4.596204249e-09
-5.045406307e-09
-5.608527527e-09
3.222063376e-09
4.253284643e-09
-2.810815463e-09
-3.07186276e-09
1.811356893e-09
2.227077162e-09
-1.774064357e-09
-1.636411091e-09
1.042996483e-09
1.2006648e-09
-1.415845286e-09
-8.713587032e-10
6.699775937e-10
6.550054768e-10
-1.081298625e-09
-5.605516952e-10
6.912022083e-10
5.141408635e-10
-9.186970986e-10
-4.214903751e-10
5.103449022e-10
2.88685236e-10
-6.130853945e-10
-1.488547465e-10
1.123879117e-10
1.686111574e-11
-2.086616023e-10
4.423778364e-11
5.72506352e-10
-1.227646119e-10
-5.603662572e-10
2.22292898e-10
7.022773551e-10
-2.241656266e-10
-4.977491355e-10
-2.862373206e-11
6.756436177e-11
1.456783243e-11
-5.63151491e-11
-3.665333657e-12
4.211832765e-10
-1.266674468e-11
-3.554707628e-10
5.511265361e-11
7.332310078e-11
-3.564993049e-11
-4.815888026e-11
1.635250909e-11
1.537435649e-11
-7.26662244e-12
-1.017980266e-11
3.655674567e-12
7.655169248e-12
-2.168973753e-12
-5.270561521e-12
1.71601798e-12
2.14687693e-11
-4.455933657e-12
-1.1514024e-11
4.92953562e-12
1.618368694e-11
-6.220981073e-12
-1.761301509e-11
1.111747028e-11
3.219557323e-11
-1.325823889e-11
-3.256125763e-11
1.842210354e-11
5.026521353e-11
-2.157356971e-11
-4.584666633e-11
2.626240915e-11
1.031545036e-10
-4.586446243e-11
-1.191349884e-10
8.352569309e-11
1.786185433e-10
-1.237624565e-10
-1.971796944e-10
1.549735025e-10
1.992216437e-10
-1.770747362e-10
-2.835081982e-10
1.75877502e-10
8.285612894e-11
-1.829128717e-10
8.260094629e-11
-1.380603371e-10
-6.449867314e-09
-1.060025656e-08
6.301431094e-09
1.060457093e-08
-5.748957608e-09
-8.692440478e-09
3.996014953e-09
5.997108806e-09
-2.54585079e-09
-3.901064956e-09
2.05819076e-09
2.712828475e-09
-1.574643179e-09
-2.214448437e-09
1.805879575e-09
2.147386214e-09
-2.185147105e-09
-2.300024204e-09
2.041957001e-09
2.464489296e-09
-2.967108232e-09
-2.464872549e-09
1.743348239e-09
2.234303512e-09
-2.548623541e-09
-1.812578024e-09
1.18392084e-09
1.306078897e-09
-1.500999442e-09
-8.596609428e-10
7.023280845e-10
5.253505063e-10
-7.799109366e-10
-2.763352848e-10
3.452630507e-10
4.829075235e-11
-4.802418478e-10
1.809270459e-10
5.701162659e-10
-2.582193218e-10
-3.930587548e-10
2.080837238e-10
3.175194768e-10
8.706040628e-12
-2.326051178e-10
-3.857812614e-11
5.45489873e-11
1.581261618e-11
-5.821765843e-11
-2.536943075e-12
2.99585547e-10
-7.1246558e-12
-2.522275071e-10
3.393310493e-11
2.787651257e-11
-1.647671928e-11
-1.464784505e-11
6.351929686e-12
6.61880986e-12
-2.965493634e-12
-4.363350324e-12
1.750235662e-12
3.618517849e-12
-1.232290979e-12
-2.421081805e-12
8.317115715e-13
9.358873508e-12
-1.776535098e-12
-8.503425654e-12
4.929124731e-12
1.483309624e-11
-7.829944127e-12
-1.098963035e-11
8.386742699e-12
2.594415615e-11
-8.496100439e-12
-1.719912258e-11
1.226433358e-11
4.839553316e-11
-2.272939622e-11
-4.608107475e-11
3.541075756e-11
1.38431637e-10
-6.457298308e-11
-1.53936405e-10
1.104541825e-10
2.081323588e-10
-1.590657029e-10
-1.953422102e-10
1.848894768e-10
4.982972356e-10
-3.096676788e-10
-7.778178076e-10
6.118411001e-10
8.977933689e-10
-1.086621102e-09
-2.223594574e-09
1.619401272e-09
7.632135443e-10
-3.968378692e-09
2.068120232e-09
-1.97535623e-09
5.934552951e-09
1.759396583e-08
-6.868272181e-09
-1.224634732e-08
3.98976951e-09
7.656345951e-09
-2.503157058e-09
-4.376213908e-09
1.5681043e-09
2.671974326e-09
-1.093602057e-09
-2.044214101e-09
1.462354388e-09
2.13525895e-09
-1.521991669e-09
-2.826977729e-09
2.804601106e-09
3.985772098e-09
-3.140178923e-09
-5.183932043e-09
3.782049574e-09
5.872076838e-09
-3.758654666e-09
-5.79644474e-09
3.068533322e-09
5.058524848e-09
-2.717757664e-09
-3.92978195e-09
1.687529962e-09
2.716600119e-09
-1.364108157e-09
-1.689885183e-09
7.677927409e-10
9.982561915e-10
-5.396018193e-10
-6.0981933e-10
4.016995785e-10
4.103405224e-10
-2.276248118e-10
-2.499015681e-10
1.901340504e-10
1.329012217e-10
-1.123908449e-10
-6.314276792e-11
1.867945315e-10
6.607048283e-11
-1.701867364e-10
-5.486602313e-11
6.456306624e-11
2.267741669e-11
-7.143249133e-11
-2.435343378e-12
2.096441362e-10
-8.738342832e-12
-1.638658766e-10
-4.263475268e-14
8.332634206e-12
-2.789118466e-12
-6.088635204e-12
1.925526483e-12
2.95965996e-12
-1.293069174e-12
-2.020734398e-12
9.054045829e-13
1.645257757e-12
-6.642375778e-13
-1.039720743e-12
5.303292478e-13
6.176796563e-12
-7.741372038e-13
-1.68909739e-12
3.055779906e-12
5.958857157e-12
-4.948148682e-12
-1.428793561e-12
4.616231751e-12
1.023052073e-11
-5.069767856e-12
-4.995932641e-12
8.571318215e-12
4.549548221e-11
-1.41727843e-11
-3.659742602e-11
3.217882408e-11
1.509609336e-10
-6.532893087e-11
-1.083111576e-10
1.096643786e-10
1.518888626e-10
-1.546141599e-10
-1.012779688e-10
2.218340245e-10
7.213614568e-10
-4.92924797e-10
-4.700852212e-10
9.020470794e-10
1.946895747e-09
-1.550207065e-09
-1.012468053e-09
2.619313628e-09
4.544135411e-09
-4.350861356e-09
-2.573929361e-09
6.859739036e-09
-5.937988473e-09
-1.071457265e-08
-7.653976642e-09
-2.058339056e-08
1.237354548e-08
5.211186583e-09
-3.947404229e-09
-7.12220926e-09
1.668328717e-09
3.887026642e-09
-1.298730505e-09
-2.357971924e-09
8.825646695e-10
1.838781719e-09
-7.720741439e-10
-1.958177686e-09
1.473282781e-09
2.609939306e-09
-1.214841783e-09
-3.675546396e-09
2.762495262e-09
4.735961787e-09
-1.950338735e-09
-5.22651956e-09
2.786035272e-09
4.929395819e-09
-1.700363537e-09
-4.0680009e-09
1.711345059e-09
3.013938274e-09
-9.351642129e-10
-2.043727627e-09
7.71916927e-10
1.288006787e-09
-4.284331714e-10
-7.707027837e-10
3.038317821e-10
4.545753632e-10
-1.973314045e-10
-2.778805993e-10
1.413823418e-10
1.840546195e-10
-1.10102237e-10
-1.373622712e-10
9.741441446e-11
1.136945517e-10
-9.286985816e-11
-9.68719835e-11
1.651366666e-10
8.875650397e-11
-1.395575713e-10
-6.586265545e-11
7.657945178e-11
2.92601008e-11
-7.666153248e-11
-1.331436787e-12
1.187451191e-10
-1.111329615e-11
-6.719862534e-11
-4.537969585e-13
4.575436135e-12
-1.591558319e-12
-3.494659278e-12
1.202837587e-12
1.328990949e-12
-7.979002269e-13
-8.010626801e-13
5.041989675e-13
6.028152326e-13
-3.173602848e-13
-3.149524824e-13
2.374934781e-13
3.370285834e-13
-2.579754392e-13
-1.765767306e-13
3.139176454e-13
3.786035167e-13
-3.323297802e-13
-1.252412487e-13
4.445557454e-13
2.37169147e-12
-8.856400019e-13
-7.916202061e-13
2.821108066e-12
1.928987234e-11
-1.017156979e-11
-9.639742205e-12
2.811468147e-11
6.732201972e-11
-6.091544537e-11
-4.267737389e-11
1.119387609e-10
5.518534712e-11
-1.86883162e-10
-3.341537409e-11
2.285958921e-10
3.880902515e-10
-3.05570469e-10
-4.7179496e-10
4.55341851e-10
6.497568914e-10
-6.509603382e-10
-7.309250937e-10
8.757742851e-10
1.181777307e-09
-1.204155731e-09
-7.779216309e-10
1.86435125e-09
2.982902441e-09
-1.438922696e-09
7.59795993e-09
-3.315806636e-09
5.352084825e-09
-2.736303692e-09
-1.38539038e-08
9.298239463e-09
3.307616855e-09
-3.187264388e-09
-5.86311493e-09
1.251642067e-09
3.786946205e-09
-1.571271679e-09
-2.654219797e-09
7.413309421e-10
2.11815367e-09
-8.822726174e-10
-1.988868896e-09
9.075906095e-10
2.140273789e-09
-7.277588161e-10
-2.41247797e-09
1.238678751e-09
2.583168565e-09
-7.84389607e-10
-2.476155402e-09
1.032825956e-09
2.10141336e-09
-6.551144877e-10
-1.616520981e-09
5.865714147e-10
1.17152546e-09
-4.173815389e-10
-8.284681848e-10
3.059522993e-10
5.824573048e-10
-2.612359158e-10
-4.076343636e-10
1.64600159e-10
2.834764866e-10
-1.668639165e-10
-1.99471735e-10
1.013397151e-10
1.483497858e-10
-1.123122333e-10
-1.203126565e-10
8.93079148e-11
1.042382245e-10
-9.103785441e-11
-9.291283336e-11
9.65413892e-11
6.602948307e-11
-5.405183922e-11
-4.62952768e-11
6.545116424e-11
2.299183034e-11
-3.79203716e-11
7.541559091e-12
2.195784435e-11
-8.114325991e-12
-3.460400147e-12
4.678156351e-12
2.649634986e-12
-1.704780814e-12
-7.069962917e-13
3.925145089e-13
3.803567043e-13
-9.895681091e-14
-2.446238522e-13
6.177522537e-14
1.524759404e-13
-6.94939844e-14
-1.22260828e-13
1.093277537e-13
1.040245996e-13
-1.247377902e-13
-5.869346003e-14
1.212908e-13
6.351746248e-14
-1.194268982e-13
-3.371077805e-14
1.320558149e-13
2.263345066e-13
-1.885156704e-13
-8.663537019e-14
6.047314509e-13
4.186743927e-12
-3.061560805e-12
-1.811456331e-12
1.216063012e-11
2.55503775e-11
-3.457626994e-11
-1.449901541e-11
7.525963561e-11
2.39028589e-11
-1.359578299e-10
-3.131295775e-11
1.689518079e-10
6.691595484e-10
-3.446461725e-10
-1.02163977e-09
7.918297176e-10
1.098171172e-09
-1.363516133e-09
-1.964830828e-09
1.748250598e-09
8.429656258e-10
-1.790185259e-09
-1.165839901e-09
1.634795478e-09
8.250085058e-10
-6.116972604e-10
1.772493078e-09
-1.538167133e-09
4.843975766e-09
1.582086326e-08
-4.61823199e-09
-1.466241199e-08
3.678087861e-09
1.326152708e-08
-4.25629213e-09
-1.177281546e-08
2.36539447e-09
1.008412441e-08
-3.133881568e-09
-8.231563782e-09
1.331162212e-09
6.41179289e-09
-1.890085481e-09
-4.831807107e-09
7.713344528e-10
3.604213844e-09
-9.988827831e-10
-2.724639574e-09
5.677582754e-10
2.105392055e-09
-5.305162607e-10
-1.641831305e-09
4.367818028e-10
1.272677418e-09
-3.241047638e-10
-9.857928399e-10
3.158544334e-10
7.814431622e-10
-2.458242563e-10
-6.448151621e-10
2.461770637e-10
5.48928495e-10
-2.40090154e-10
-4.715815479e-10
1.983717567e-10
4.031697998e-10
-2.726427774e-10
-3.437975678e-10
1.620596894e-10
2.927629793e-10
-3.099146177e-10
-2.413082209e-10
1.180739079e-10
1.793575372e-10
-2.209851876e-10
-1.200178392e-10
3.384199335e-11
5.28751801e-11
-6.023703676e-11
-2.141846872e-11
9.079830099e-12
8.573676576e-12
-9.540433298e-12
-1.371826055e-12
5.99854681e-13
2.091126916e-14
-3.314795949e-13
7.365680492e-14
1.403854651e-13
-4.542154774e-14
-1.182953762e-14
3.511763605e-14
6.467364496e-14
-4.630660241e-14
-7.049342368e-15
5.582608213e-14
3.009268124e-14
-5.021591768e-14
-3.037421859e-15
3.993994151e-14
1.490427619e-14
-3.258769012e-14
-9.917882195e-16
2.97672989e-14
1.209107171e-14
-3.371690608e-14
-1.741284024e-15
3.90354952e-14
2.470764753e-14
-4.737296986e-14
-2.893448859e-15
8.52092643e-14
7.493718672e-13
-3.472979387e-13
-8.889094385e-13
2.706303091e-12
7.98728515e-12
-1.027323935e-11
-7.543170415e-12
2.963054096e-11
5.107503456e-11
-6.310000506e-11
-6.411357091e-11
9.244670734e-11
1.580974003e-09
-7.513882705e-10
-2.118370736e-09
2.695789061e-09
3.838149882e-09
-5.417996655e-09
-5.957239113e-09
7.10602306e-09
1.932670512e-09
-6.371101011e-09
-3.663511761e-09
4.211735779e-09
4.909604811e-10
-2.331714634e-09
-1.812163263e-10
1.356359518e-09
3.611101996e-10
-9.30372581e-11
-1.000981453e-09
1.304065389e-08
3.748605316e-09
-2.055211726e-09
-1.449373111e-08
3.606949386e-09
1.475046394e-08
-2.029031062e-09
-1.375133271e-08
2.607171626e-09
1.192992859e-08
-1.332318017e-09
-9.808798702e-09
1.585431149e-09
7.745957249e-09
-7.462105366e-10
-5.914750681e-09
8.699890521e-10
4.377255305e-09
-4.243811192e-10
-3.147157574e-09
4.48977349e-10
2.21613096e-09
-2.536812963e-10
-1.5578987e-09
2.564429781e-10
1.129539256e-09
-1.764850161e-10
-8.791321542e-10
2.120708805e-10
7.604243335e-10
-2.117859446e-10
-7.489852705e-10
2.843288572e-10
8.537543652e-10
-5.630997807e-10
-1.123658269e-09
5.583014277e-10
1.633907598e-09
-1.92640215e-09
-2.365557769e-09
8.894659344e-10
2.958503863e-09
-3.219401098e-09
-2.853589631e-09
5.625847262e-10
2.02269356e-09
-1.981949464e-09
-1.024226818e-09
1.803413999e-10
4.18567604e-10
-4.979896441e-10
-1.557741409e-10
2.733990749e-11
4.808184907e-11
-6.421681604e-11
-1.381009898e-12
4.76136976e-13
3.344296974e-13
-5.296375515e-13
-1.053335313e-18
2.654207703e-17
-2.053199459e-18
-1.488923599e-17
1.4911602e-17
2.693369007e-16
-9.839686078e-17
-1.118956582e-16
2.208656893e-16
-3.206169524e-16
-3.521090694e-16
1.9162552e-15
3.662140347e-16
-2.373106114e-15
-3.266403449e-16
2.471080218e-15
1.110903574e-15
-2.143167066e-16
-1.294493864e-15
8.495859639e-16
1.625021711e-15
-5.025922379e-16
-2.161938006e-15
2.972771468e-15
5.084276694e-15
2.538945979e-12
-6.521646183e-14
-5.281618794e-12
5.644225582e-12
1.325398365e-11
-1.981031928e-11
-1.073367018e-11
3.108353604e-11
8.172657489e-11
-4.154885672e-11
-9.033848219e-11
2.314891615e-10
1.855681653e-09
-1.178925331e-09
-9.875960173e-10
3.618529265e-09
5.314886662e-09
-7.248081079e-09
-2.534677361e-09
1.064825876e-08
4.625156717e-09
-1.169759607e-08
-2.674503107e-09
8.697881012e-09
2.308431203e-10
-3.095020058e-09
-2.041077191e-10
5.112627219e-10
3.889512701e-11
-5.972392031e-12
-1.641238758e-10
4.455695501e-10
7.59161433e-11
-2.029305682e-09
2.974493054e-09
8.260564376e-10
-1.98152461e-11
-3.783249807e-09
1.076344123e-09
4.11833465e-09
-4.204932747e-10
-3.804580057e-09
7.656357833e-10
3.160350643e-09
-4.044663516e-10
-2.501603065e-09
4.523275867e-10
1.961562331e-09
-2.884299696e-10
-1.557327498e-09
2.817078268e-10
1.246868275e-09
-2.268286638e-10
-9.911969994e-10
1.770205165e-10
7.789389601e-10
-1.526120659e-10
-6.29287499e-10
1.376687162e-10
5.877228158e-10
-1.112403126e-10
-7.285623285e-10
2.915128796e-10
1.182761041e-09
-3.225591246e-10
-2.235225154e-09
1.295851731e-09
4.494530445e-09
-1.882561707e-09
-8.606200347e-09
4.577251443e-09
1.394606831e-08
-6.063944191e-09
-1.829992723e-08
6.611644381e-09
1.964711246e-08
-8.648632068e-09
-1.754685067e-08
4.278282398e-09
1.309342356e-08
-6.376611271e-09
-8.03048262e-09
1.182271665e-09
3.897931149e-09
-2.088299158e-09
-1.390989138e-09
1.22173121e-10
3.068773033e-10
-1.843497595e-10
-7.071719761e-12
5.443553058e-13
9.661715585e-13
-4.409844611e-13
-4.259284124e-17
4.972865976e-22
2.87391952e-23
8.551293305e-23
2.02584848e-22
1.12209645e-20
-3.774483812e-22
7.310894045e-20
9.449936828e-21
-1.082205576e-14
1.751834537e-15
2.308536485e-14
1.72574945e-15
-3.604381946e-15
-4.232302508e-15
7.36651659e-15
4.101381789e-15
-1.975526423e-15
-3.615378456e-15
5.132767048e-15
4.342282638e-15
-2.254297981e-14
-7.413942216e-15
1.488391573e-12
1.322580382e-12
2.576298366e-12
-6.0839828e-12
1.480187898e-11
8.277271309e-12
4.607770157e-12
-5.774213919e-12
3.750144215e-13
5.155239185e-12
1.936689107e-11
-1.349057109e-11
-1.837168939e-11
2.947143415e-11
2.978032765e-10
-3.394248879e-10
-2.012014226e-11
7.79952331e-10
2.57059814e-10
-6.691558687e-10
-1.678691145e-11
2.555255013e-10
2.069888668e-11
-5.996179155e-11
-1.670645493e-12
1.714610717e-11
2.215298086e-11
-2.678134305e-11
-1.760439165e-12
5.731511416e-11
1.706880655e-11
-5.726637803e-12
1.131432782e-10
-8.899128004e-11
-1.659255163e-10
1.820236632e-10
-5.218366833e-10
5.162960145e-10
-2.568894513e-10
2.418124431e-10
-4.834444428e-10
8.853024701e-12
3.964858255e-10
4.216704232e-11
-4.335399273e-10
9.133985796e-11
4.093136294e-10
-2.187448152e-12
-4.232214826e-10
1.298504714e-10
5.458557926e-10
-2.147967993e-11
-7.735679828e-10
2.046601533e-10
1.080248294e-09
-7.082988804e-11
-1.393082465e-09
1.753401228e-10
1.509237312e-09
-1.129384993e-10
-1.303419634e-09
6.984078856e-11
9.751539856e-10
-1.979797039e-11
-8.637847115e-10
9.561694817e-11
1.30032717e-09
4.774974507e-11
-2.699006538e-09
1.371141255e-09
5.340884608e-09
-1.065729782e-10
-9.18890032e-09
4.503876379e-09
1.415013805e-08
-1.214067595e-09
-1.930811896e-08
7.303457906e-09
2.275974192e-08
-3.096710653e-09
-2.293627657e-08
6.214184776e-09
1.956573181e-08
-3.111342539e-09
-1.38203375e-08
2.361294638e-09
7.729030251e-09
-1.402461936e-09
-3.116633762e-09
2.099347099e-10
7.074464948e-10
-1.347834965e-10
-7.330596933e-12
1.334643019e-13
3.668655118e-13
1.85269981e-13
-4.621353745e-14
-3.741649264e-15
5.04939169e-15
1.19281582e-14
-1.231221735e-14
-7.466627005e-15
1.428480304e-14
8.714428897e-15
-1.294502974e-14
-1.721353156e-14
7.606866422e-15
1.489736095e-14
-3.032666684e-16
-1.097673593e-14
-3.919462893e-15
1.3490755e-14
1.241741356e-14
-7.208829196e-11
-1.536841457e-14
1.083658383e-10
7.871095159e-12
-4.437455767e-12
-1.30737853e-11
2.243811472e-11
1.056743113e-11
-2.643849822e-11
-1.942297579e-11
5.446990846e-11
3.329005374e-11
-1.659515077e-11
-3.990588466e-11
5.876174698e-11
4.611513571e-11
-4.574491603e-12
-5.214483895e-11
5.083893305e-11
4.313226087e-11
1.640018676e-11
-5.455093541e-11
-5.80840247e-13
5.234468683e-11
8.864824265e-12
-4.382854513e-11
5.008120079e-13
3.050037455e-11
1.48303268e-12
-1.720074199e-11
5.318183706e-13
7.889525282e-12
9.991116272e-14
-3.017290016e-12
1.317601695e-13
1.127899342e-12
1.248088088e-13
3.866313173e-13
2.787427615e-12
-1.062926559e-12
-1.553474326e-10
9.021730818e-11
-3.337680837e-10
2.491820569e-10
-1.615615072e-10
7.087476846e-11
-1.55417636e-10
-7.137298581e-12
6.965801684e-11
6.474848752e-12
-7.291864228e-11
-5.095888488e-12
9.512890559e-11
3.027435187e-11
-1.362875955e-10
-1.097123447e-11
1.964149268e-10
7.023823919e-11
-2.708147129e-10
-4.971874219e-11
3.205656989e-10
1.139393728e-10
-2.701311149e-10
7.840726453e-12
1.632057463e-10
4.657090467e-11
-9.897431054e-11
9.895232303e-12
7.416581954e-11
1.248592668e-11
-6.900983725e-11
1.068188995e-11
6.710495734e-11
5.861890576e-12
-6.654029173e-11
9.010740209e-12
7.273456882e-11
5.137816192e-12
-8.782897916e-11
4.10677187e-12
4.252520915e-11
8.003438029e-12
-3.048461366e-11
9.015335391e-12
5.964141061e-11
1.215408741e-11
-1.204136949e-10
1.863737852e-11
2.062342073e-10
5.756826601e-11
-3.193056018e-10
9.6026665e-12
4.373034846e-10
1.637083925e-10
-4.824172894e-10
-7.57383682e-11
3.490206331e-10
2.498866215e-10
-1.202096464e-10
-1.302990788e-11
4.359751808e-11
1.429452251e-10
-5.519447076e-11
-2.068057573e-12
2.379691785e-10
9.213298474e-10
-9.29749289e-10
-2.214168871e-14
5.955698239e-10
9.163141614e-10
-6.025252641e-14
-1.440081443e-14
3.249395793e-15
1.9299016e-14
-2.091007951e-15
-2.96305212e-14
-1.279927073e-15
4.075816428e-14
3.268914332e-14
-7.938324175e-11
-1.769086007e-13
4.838219406e-11
1.699600858e-11
-7.499475551e-11
-1.094605887e-10
1.867389814e-10
7.727902719e-11
-1.154233451e-10
-8.230844358e-11
2.263547257e-10
1.132274215e-10
-1.491941439e-10
-1.497585042e-10
3.153380507e-10
1.750156074e-10
-1.332244605e-10
-1.637237165e-10
2.836135861e-10
1.220299126e-10
-1.863800483e-11
-1.13687597e-10
4.459488348e-11
1.118657864e-10
-1.161686537e-11
-1.06064037e-10
2.794973861e-11
9.395284128e-11
-6.306510955e-12
-7.584789764e-11
1.400594619e-11
5.468201265e-11
-2.241612622e-12
-3.475841052e-11
4.370947725e-12
1.934946833e-11
-6.163286643e-13
8.725754919e-13
4.30383279e-12
-9.451395397e-12
-4.042535305e-10
1.117747795e-09
-5.53396579e-09
3.556862514e-09
-2.641444309e-10
5.885368509e-10
-2.136124148e-09
-1.136031569e-10
1.271730332e-09
2.367181757e-10
-8.069163903e-10
-8.19822663e-11
5.671267854e-10
1.215751754e-10
-4.414284836e-10
-8.633239628e-11
3.643855179e-10
9.012481623e-11
-3.020592836e-10
-7.861290791e-11
2.423764228e-10
6.927471618e-11
-1.887238156e-10
-3.772432623e-11
1.52223852e-10
4.911413596e-11
-1.37094522e-10
-2.004068362e-11
1.365715074e-10
4.804900173e-11
-1.438803519e-10
-1.767160665e-11
1.556608358e-10
5.708870469e-11
-1.687095981e-10
-1.724260056e-11
1.751674745e-10
5.2032023e-11
-1.594745986e-10
-1.115089635e-11
1.133592604e-10
3.385016406e-11
-6.904339107e-11
-1.476035863e-11
5.074197446e-11
1.671396379e-11
-7.474300478e-11
-8.660341443e-11
1.716910358e-10
6.095233981e-11
-3.802120283e-10
-2.82927049e-10
7.002124242e-10
2.938513433e-10
-9.659324649e-10
-6.405153834e-10
8.532589103e-10
1.32234355e-09
-5.126265169e-10
-6.011148823e-10
3.318516382e-10
1.630673151e-09
-4.45012634e-10
-2.956120007e-09
1.337644184e-09
5.599906683e-09
-3.673113208e-09
-2.549039212e-09
2.292918689e-09
3.871582806e-09
-1.706227263e-13
-2.242637216e-14
4.017642251e-15
2.705030278e-14
-1.146494638e-16
-1.929367633e-13
-3.280784687e-15
9.330234112e-13
5.982740375e-13
-2.697680575e-11
-4.353756942e-12
2.73539861e-11
2.021076634e-11
-3.297694354e-10
-1.469423131e-10
3.932093786e-10
1.575437481e-10
-3.930512982e-10
-1.941496751e-10
6.167183395e-10
2.747092412e-10
-5.841994316e-10
-3.806914565e-10
1.018567936e-09
4.746992529e-10
-5.514738733e-10
-5.136274278e-10
1.107568142e-09
4.787318806e-10
-9.947658481e-11
-3.81690033e-10
2.189092567e-10
3.180711288e-10
-5.067860826e-11
-2.596601747e-10
5.244978985e-11
1.965067561e-10
-2.045597999e-11
-1.301452027e-10
7.656628232e-12
7.618506655e-11
-5.103478271e-12
-4.390917139e-11
1.677710115e-12
3.068518793e-11
-9.782918696e-13
2.994051417e-12
3.256086435e-11
-2.869193061e-11
-2.773649551e-09
-2.070975216e-08
1.151864685e-08
-1.047680383e-09
1.527924999e-09
-6.811192796e-09
-3.901349631e-10
3.533031301e-09
5.264444052e-10
-1.716636514e-09
-1.663160785e-10
8.996202857e-10
2.149897764e-10
-5.774914238e-10
-1.06685813e-10
4.435059133e-10
1.43891191e-10
-3.71256556e-10
-8.6398112e-11
3.366129753e-10
1.252546392e-10
-3.263481683e-10
-8.551288498e-11
3.343994506e-10
1.419094947e-10
-3.570277979e-10
-1.059614027e-10
3.914666287e-10
1.851595797e-10
-4.351412742e-10
-1.308678388e-10
4.821410133e-10
2.184562299e-10
-5.166289718e-10
-1.089445464e-10
5.110600395e-10
1.725187906e-10
-4.458219211e-10
-7.262658199e-11
3.381958369e-10
1.140810022e-10
-2.28751967e-10
-3.016252293e-11
1.389472545e-10
5.102346645e-11
-7.632962343e-11
-3.208722657e-11
5.17690867e-11
2.094285787e-11
-1.051392727e-10
-1.758155041e-10
4.76963325e-10
2.852615628e-10
-1.967334626e-09
-2.130212885e-09
5.189296838e-10
2.464032183e-09
-1.409177725e-09
-3.577122585e-09
1.15473243e-09
6.965576901e-09
-1.251134166e-09
-8.21634194e-09
1.838733626e-09
1.077445188e-08
-2.524780161e-09
-4.056379932e-09
1.723143775e-09
3.354116147e-09
-1.615405152e-12
-1.739246495e-12
-2.982618515e-12
7.790932941e-12
7.59959172e-13
-3.286519765e-12
-2.044700066e-13
8.833512803e-12
4.914575758e-12
-5.103040643e-11
-2.502864004e-11
9.606799609e-11
6.714178651e-11
-4.29437747e-10
-1.238834269e-10
5.216340042e-10
2.211556834e-10
-9.297034124e-10
-3.726007409e-10
1.436899726e-09
6.266523982e-10
-1.774285015e-09
-1.390133972e-09
3.921161834e-09
2.59771847e-09
-2.05935792e-09
-3.286003944e-09
3.323473066e-09
2.661472047e-09
-3.726462262e-10
-1.241505582e-09
4.113656708e-10
4.39413693e-10
-1.339607841e-11
-2.079596963e-10
1.921921032e-11
1.310135851e-10
1.612489482e-11
-9.68921145e-11
-5.223361445e-12
7.881841566e-11
1.246101716e-11
-6.778927137e-11
-8.729840098e-12
6.726146078e-11
2.824674707e-12
-1.689880307e-11
9.365970015e-11
-7.164702311e-11
2.640818382e-09
-8.748106878e-10
5.901734403e-10
-1.97762221e-09
-4.027230242e-10
1.622582865e-09
4.502545307e-10
-1.41587215e-09
-2.773939396e-10
1.231889377e-09
4.442427075e-10
-1.015589866e-09
-2.084256742e-10
7.967358887e-10
3.213721833e-10
-6.546660754e-10
-1.830610743e-10
5.855606523e-10
2.633703525e-10
-5.553328286e-10
-2.085378109e-10
5.500562267e-10
2.761949505e-10
-5.593770202e-10
-2.645438388e-10
5.747667993e-10
3.165537617e-10
-5.88628609e-10
-3.016342434e-10
5.956728574e-10
3.32844193e-10
-5.967360048e-10
-2.389257514e-10
5.990289985e-10
2.99146364e-10
-6.026908607e-10
-1.506033743e-10
5.922093817e-10
2.462042653e-10
-5.296158603e-10
-7.550605781e-11
2.211154571e-10
1.090832027e-10
-1.38348835e-10
-3.516740094e-11
7.498533943e-11
4.110816871e-11
-6.213638727e-11
-5.399929558e-09
4.334270342e-10
3.592015122e-10
2.790392084e-10
-4.275444264e-08
-2.544825391e-08
8.029308565e-09
4.637726998e-09
-1.311322162e-08
2.127296024e-09
2.04025851e-08
-3.058079139e-09
-1.395483048e-08
2.53048439e-09
1.87223707e-08
-6.24250705e-10
-2.457814882e-09
1.403951391e-10
1.746341383e-09