/*--------------------------------*- C++ -*----------------------------------*\
| =========                 |                                                 |
| \\      /  F ield         | OpenFOAM: The Open Source CFD Toolbox           |
|  \\    /   O peration     | Version:  2.1.x                                 |
|   \\  /    A nd           | Web:      www.OpenFOAM.org                      |
|    \\/     M anipulation  |                                                 |
\*---------------------------------------------------------------------------*/
FoamFile
{
    version     2.0;
    format      ascii;
    class       volVectorField;
    location    "0.2";
    object      Uf;
}
// * * * * * * * * * * * * * * * * * * * * * * * * * * * * * * * * * * * * * //

dimensions      [0 1 -1 0 0 0 0];

internalField   nonuniform List<vector> 
2828
(
(-0.3653068631 0 -0.09877930084)
(-0.2740477757 0 -0.04903647013)
(-0.306308255 0 -0.009566408349)
(-0.340871167 0 0.03447778669)
(-0.3978547566 0 0.03021225888)
(-0.5777825444 0 -0.2426843294)
(-0.4873057832 0 -0.166575019)
(-0.3802806312 0 -0.09349166433)
(-0.4003112943 0 -0.07403240842)
(-0.4033772707 0 -0.05629142682)
(-0.3170551207 0 -0.01349248682)
(-0.2908301074 0 0.001837365026)
(-0.3431904215 0 0.03699197198)
(-0.431323527 0 0.04076189702)
(-0.4048214643 0 -0.03328268752)
(-0.3661371185 0 0.08996990028)
(-1.404917515 0 0.5267587243)
(-0.595832672 0 -0.3820092369)
(-0.6119996072 0 -0.3259701108)
(-0.5961847598 0 -0.2629956647)
(-0.5186169689 0 -0.188476487)
(-0.3829558108 0 -0.1057834675)
(-0.423851054 0 -0.06333794642)
(-0.3831608807 0 -0.05070902333)
(-0.3329884015 0 -0.01463962314)
(-0.2796261667 0 0.02536145124)
(-0.3617371739 0 0.04121561477)
(-0.49656247 0 0.06497458284)
(-0.3869788543 0 0.006336951009)
(-0.3766307277 0 0.09804306985)
(-1.757077018 0 0.6694870003)
(-1.533265509 0 0.6859013389)
(-1.184415414 0 0.5945254637)
(-0.5336213075 0 -0.4511102807)
(-0.5749863955 0 -0.4127640156)
(-0.6420779248 0 -0.3756671013)
(-0.6642707087 0 -0.3109523842)
(-0.5582537314 0 -0.2081717301)
(-0.406161834 0 -0.09968987487)
(-0.5067905934 0 -0.002093781427)
(-0.3609509011 0 -0.07428793468)
(-0.3502801951 0 -0.01851030626)
(-0.2808986737 0 0.03773958233)
(-0.4062828943 0 0.04860160387)
(-0.6117739586 0 0.09741538499)
(-0.4015231745 0 0.04807768939)
(-0.4100206758 0 0.1111245498)
(-2.041433442 0 0.7998661129)
(-1.816416341 0 0.8638709681)
(-1.334209813 0 0.7140455646)
(-0.8207070443 0 0.4579092382)
(-0.5212572551 0 0.3160392517)
(-0.4515893015 0 -0.4988612327)
(-0.4888478792 0 -0.4861852679)
(-0.5765927007 0 -0.482954267)
(-0.7173639445 0 -0.4809581308)
(-0.8119763038 0 -0.4178705689)
(-0.6699271383 0 -0.2571969809)
(-0.4145933618 0 -0.07669271125)
(-0.5328084667 0 0.06263201998)
(-0.3583290236 0 -0.07657660469)
(-0.3572193997 0 -0.02695724162)
(-0.2836858716 0 0.03516908914)
(-0.4896300315 0 0.06212753819)
(-0.7769327093 0 0.1441040998)
(-0.4421703347 0 0.09503290214)
(-0.4248873316 0 0.124375218)
(-2.28440813 0 0.9224653233)
(-2.178687145 0 1.140131212)
(-1.459774341 0 0.851206686)
(-0.713449202 0 0.4254494859)
(-0.3357527169 0 0.2374696001)
(-0.2720552361 0 0.2226668453)
(-0.3864219334 0 -0.5056440616)
(-0.4955986917 0 -0.6174637784)
(-0.5160197666 0 -0.5937232426)
(-0.5415841674 0 -0.5528525469)
(-0.7307622154 0 -0.5946060606)
(-0.9730991497 0 -0.5845540588)
(-0.9331071583 0 -0.3808518052)
(-0.460880918 0 -0.05487953671)
(-0.5042244993 0 0.125954961)
(-0.3713868335 0 -0.05695601452)
(-0.3875108023 0 -0.04113626546)
(-0.2844028069 0 0.03468138)
(-0.6340339947 0 0.08611743683)
(-0.9770083009 0 0.206199668)
(-0.4975665646 0 0.1396114374)
(-0.4303505438 0 0.1425806795)
(-3.160468823 0 1.419457589)
(-2.632913281 0 1.649521617)
(-1.384467494 0 0.9025543821)
(-0.4940070574 0 0.3301655278)
(-0.3445825513 0 0.2800981811)
(-0.3100032669 0 0.2671399057)
(-0.2428442938 0 0.2263885578)
(-0.3592798581 0 -0.5170624416)
(-0.5579197388 0 -0.7673678265)
(-0.6655388468 0 -0.8286054899)
(-0.6617593159 0 -0.7483323024)
(-0.618155911 0 -0.6610239878)
(-0.6373921348 0 -0.6507605826)
(-0.9549680723 0 -0.7476695949)
(-1.210314746 0 -0.5877643012)
(-0.5811813067 0 0.1777703816)
(-0.469574147 0 0.2156269105)
(-0.3750093688 0 -0.05638549411)
(-0.4521461391 0 -0.07268177354)
(-0.2842744829 0 0.04109450805)
(-0.8875788715 0 0.1283028961)
(-1.218005172 0 0.2878277776)
(-0.5665453788 0 0.1795178232)
(-0.5260649873 0 0.174748893)
(-1.419075376 0 0.679855829)
(-1.29532351 0 0.7678518148)
(-0.7881615514 0 0.515459898)
(-0.4400889726 0 0.3533121611)
(-0.3789627368 0 0.3325031411)
(-0.3156231717 0 0.2915422768)
(-0.210753708 0 0.2300898184)
(-0.4084494887 0 -0.7000265604)
(-0.547750064 0 -0.8947626933)
(-0.676071012 0 -0.9962843419)
(-0.7104354393 0 -0.9093746871)
(-0.7095132255 0 -0.8243997264)
(-0.6972689164 0 -0.8312134382)
(-0.6623123553 0 -0.8403698537)
(-0.7063578946 0 -0.8574916404)
(-0.9868084058 0 -0.7796123166)
(-0.6525493333 0 0.4321091)
(-0.4636955906 0 0.2176318107)
(-0.3518607946 0 -0.1402350242)
(-0.5220835831 0 -0.13190974)
(-0.2889312536 0 0.04797742575)
(-1.341604282 0 0.2026197548)
(-1.494053015 0 0.4015099284)
(-0.6527038563 0 0.2298374887)
(-0.584981916 0 0.26874647)
(-0.7892700244 0 0.4473828956)
(-0.3794065927 0 0.262362845)
(-0.5745061997 0 0.4129287168)
(-0.3867842263 0 0.341036464)
(-0.3377390469 0 0.3187257177)
(-0.3517434814 0 0.3592303517)
(-0.4247563793 0 0.5302895815)
(-0.4053381033 0 0.5750523904)
(-0.4996008918 0 -1.009288694)
(-0.6037872289 0 -1.169119456)
(-0.6186193604 0 -1.054606102)
(-0.641976851 0 -0.9473812079)
(-0.6998830417 0 -1.031526668)
(-0.7234416489 0 -1.138010402)
(-0.6999613585 0 -1.130245131)
(-0.6597144758 0 -1.024652722)
(-0.6613968686 0 -0.8587410705)
(-0.6797317373 0 -0.6197455169)
(-0.5462080657 0 -0.2314988818)
(-0.3647953833 0 -0.1817124383)
(-0.5380423665 0 -0.1904280172)
(-0.3104328083 0 0.05392826646)
(-2.055016168 0 0.3252831296)
(-1.824240716 0 0.5816791459)
(-0.7116394891 0 0.2865323783)
(-0.2267871959 0 0.1344941734)
(-0.3833303996 0 0.2593389561)
(-0.3477016748 0 0.2885952296)
(-0.2193970086 0 0.2888672594)
(-0.1840621913 0 0.1693319245)
(-0.1661366143 0 0.1523153185)
(-0.6831357243 0 0.6688916181)
(-0.8255434276 0 0.948607812)
(-0.8363711252 0 1.138146634)
(-0.7689310614 0 1.195042895)
(-0.4416828956 0 -1.095087241)
(-0.5004452957 0 -1.255933115)
(-0.5020563542 0 -1.209753079)
(-0.4911690791 0 -1.055584067)
(-0.5643329051 0 -1.049697798)
(-0.6558983526 0 -1.194136636)
(-0.6947978291 0 -1.270992093)
(-0.6887650133 0 -1.219967639)
(-0.680259712 0 -1.117823674)
(-0.7558136407 0 -1.093362011)
(-0.9548240449 0 -1.152541577)
(-1.112917455 0 -1.04460507)
(-0.3558916547 0 -0.1798036798)
(-0.4396687581 0 -0.2019403419)
(-0.3861752038 0 0.06851503861)
(-2.779992517 0 0.5189682086)
(-2.222378222 0 0.9105898414)
(-0.6960940718 0 0.3401357678)
(-0.3863468375 0 0.2673905419)
(-0.2034527742 0 0.3962405906)
(-0.2107767528 0 0.338809156)
(-0.1723690846 0 0.2891993245)
(-0.1515716355 0 0.2727394018)
(-0.1417870476 0 0.2796407494)
(-1.100828184 0 1.123649179)
(-0.9467082536 0 1.211598801)
(-0.8598977903 0 1.324100553)
(-0.8262903591 0 1.494983547)
(-0.3912881941 0 -1.12285982)
(-0.4171939799 0 -1.266506551)
(-0.3699822646 0 -1.184586749)
(-0.3457307557 0 -1.073421776)
(-0.3988385046 0 -1.059157903)
(-0.4789572402 0 -1.128490722)
(-0.5224126862 0 -1.169178433)
(-0.5501694693 0 -1.173984929)
(-0.6235655485 0 -1.246979468)
(-0.7950214596 0 -1.427215964)
(-1.074483176 0 -1.611059475)
(-1.353187795 0 -1.502845169)
(-0.3606509054 0 -0.195586763)
(-0.27123746 0 -0.1244572337)
(-0.5836848781 0 0.1235393669)
(-1.095910898 0 0.3911524795)
(-0.3947984699 0 0.1996384318)
(-0.5222808041 0 0.3183273668)
(-0.6367924297 0 0.6449583657)
(-0.2944162707 0 0.6876386061)
(-0.1955785385 0 0.5684802805)
(-0.1441873418 0 0.4483135139)
(-0.1193181572 0 0.3772324223)
(-0.1201472044 0 0.3741811106)
(-1.022536472 0 1.338865331)
(-0.7802052349 0 1.332847714)
(-0.7139793242 0 1.450675258)
(-0.6601080302 0 1.518789986)
(-0.3525223433 0 -1.195905724)
(-0.3624224096 0 -1.363778706)
(-0.3306533306 0 -1.411026574)
(-0.2803216935 0 -1.335773197)
(-0.2355267894 0 -1.19205011)
(-0.2385547482 0 -1.077337553)
(-0.2971024179 0 -1.037667253)
(-0.3787780399 0 -1.072765513)
(-0.4650894279 0 -1.18022383)
(-0.5464993242 0 -1.322423707)
(-0.6668285705 0 -1.532228835)
(-0.9539502706 0 -1.635120442)
(-0.386866364 0 -0.4945901233)
(-0.4162932556 0 -0.2902767447)
(-0.8897825547 0 0.08781049769)
(-0.8721551304 0 0.1539300346)
(-0.5265004926 0 0.3637847462)
(-0.8873038334 0 0.8802078821)
(-0.4172902673 0 1.205018483)
(-0.2504239204 0 0.8610038061)
(-0.1952200664 0 0.7083414322)
(-0.1502088425 0 0.5637777428)
(-0.1187952839 0 0.4561025699)
(-0.6820379616 0 0.7112632697)
(-0.6253440139 0 1.096558654)
(-0.6143026942 0 1.16800935)
(-0.5071635092 0 1.11642133)
(-0.4812379278 0 1.449758614)
(-0.4290069871 0 1.354978033)
(-0.332483554 0 -1.305876425)
(-0.3545613445 0 -1.52553952)
(-0.3496028371 0 -1.591674858)
(-0.3289901331 0 -1.51851666)
(-0.3043059355 0 -1.367681105)
(-0.2850296956 0 -1.203120819)
(-0.2855589513 0 -1.092047231)
(-0.3143782182 0 -1.045989609)
(-0.3368270928 0 -0.9777581897)
(-0.3301658538 0 -0.9102981453)
(-0.3707708639 0 -1.012385352)
(-0.3837392807 0 -1.020744413)
(-0.4007348712 0 -0.9154076738)
(-0.6194272191 0 -1.037851296)
(-1.098238435 0 -0.4235097296)
(-0.9494799748 0 0.3227019485)
(-0.7695935028 0 0.7307482929)
(0.8745371265 0 0.4526987811)
(1.504905588 0 0.494425716)
(0.3001193727 0 0.7711420942)
(0.2641639042 0 0.6237668265)
(-0.4805982272 0 0.2058551535)
(-0.29270208 0 0.6096448716)
(-0.3253682185 0 0.3290128537)
(-0.5898585393 0 1.144427504)
(-0.6123912207 0 1.267072954)
(-0.5219593737 0 1.095893389)
(-0.1754057194 0 0.4036241837)
(-0.0910574657 0 0.3272063832)
(-0.1568932143 0 -0.7667560558)
(-0.219939218 0 -0.9423376244)
(-0.2464190256 0 -1.090240901)
(-0.2520616306 0 -1.165919883)
(-0.2430345136 0 -1.146423146)
(-0.2336103973 0 -1.118524951)
(-0.2383943798 0 -1.145080073)
(-0.2686443491 0 -1.246242825)
(-0.3042714259 0 -1.297274515)
(-0.3864648667 0 -1.292732254)
(-0.5079212766 0 -1.477772894)
(-0.570417847 0 -1.620994331)
(-0.5829362531 0 -1.671217541)
(-0.5242335976 0 -1.545611127)
(-0.5242744815 0 -1.472676502)
(-1.207256171 0 -2.391156356)
(-0.5017598436 0 0.2075132708)
(0.1883063761 0 -0.06534857428)
(0.3933033762 0 -0.2684178383)
(0.9753166993 0 0.4227827732)
(0.5614182039 0 0.4471091924)
(0.2172413818 0 0.5195987232)
(0.1059229137 0 0.301217392)
(-0.4625562455 0 0.5064935078)
(-0.3796551434 0 0.4903929069)
(-0.04164331746 0 0.730460232)
(-0.1710705202 0 0.3912259086)
(-0.06431712568 0 0.2373403757)
(-0.03395577691 0 0.1902457329)
(-0.0274191977 0 0.1801948565)
(0.5763102967 0 -1.601011813)
(0.7061605551 0 -1.634556786)
(0.127493148 0 -0.4986660303)
(-0.05782107905 0 -0.5586286662)
(-0.1258599876 0 -0.684092148)
(-0.0911157842 0 -0.6950293678)
(-0.01770905307 0 -0.769310601)
(0.05473540627 0 -0.8506656919)
(0.09395229805 0 -1.003999814)
(-0.2584370367 0 -1.369525349)
(-0.4947256925 0 -1.677281295)
(-0.5846406861 0 -1.883995619)
(-0.6221750459 0 -1.970620579)
(-0.5863415493 0 -1.868976344)
(-0.4914863066 0 -1.64313604)
(-0.8953734773 0 -2.742163621)
(2.195549716 0 -3.155718166)
(1.652035378 0 -1.170729838)
(1.075964027 0 -0.4664557728)
(0.6089213895 0 0.3610239029)
(0.09076496822 0 0.2835643609)
(0.9357031261 0 0.3821251914)
(0.8410451872 0 0.495675915)
(0.6903605644 0 0.5316073696)
(0.0971193458 0 0.5517345728)
(-0.324629616 0 0.8489858002)
(-0.2207373995 0 0.6068688457)
(-0.1108990139 0 0.4478068279)
(-0.04289707478 0 0.368577668)
(-0.01745293633 0 0.3066434958)
(0.586367931 0 -1.45130162)
(0.7820699752 0 -1.670773092)
(0.05882229014 0 -0.3498896346)
(0.05535966147 0 -0.3607146388)
(0.04733152779 0 -0.3332080708)
(0.04122751111 0 -0.3886736607)
(0.01167114098 0 -0.5468607711)
(-0.1291163308 0 -0.8266969779)
(-0.3260431443 0 -1.186292408)
(-0.346003486 0 -1.351620127)
(0.1392253643 0 -0.8657079265)
(0.2142911927 0 -1.192890064)
(0.3617888092 0 -1.10793804)
(0.4729568812 0 -1.210072371)
(0.7816939823 0 -1.386585513)
(3.626948812 0 -0.909907104)
(2.753397779 0 -0.4926194271)
(0.6589980963 0 -0.4391953331)
(1.07420214 0 -0.262142981)
(0.432745339 0 0.3454834504)
(0.3438678408 0 0.3239220824)
(0.7648691742 0 0.2544703108)
(0.7908333371 0 0.3859710201)
(0.7151947253 0 0.3937618794)
(0.9388789882 0 0.4132609871)
(0.3800345404 0 0.9612775798)
(0.2802832831 0 0.9625457946)
(0.2091814114 0 0.8286943233)
(0.1633883828 0 0.7106688873)
(0.1273924762 0 0.5976296804)
(0.1643056471 0 -1.196489077)
(0.1767863281 0 -1.115703743)
(0.1772578784 0 -1.000167506)
(0.198689524 0 -0.9982457927)
(0.2450181799 0 -1.084847027)
(0.3149827672 0 -1.230901672)
(0.429513068 0 -1.469880022)
(0.5703684496 0 -1.659246487)
(0.6475070974 0 -1.510576617)
(0.366766792 0 -0.8145972869)
(0.1775904442 0 -0.5848423202)
(0.2184714064 0 -0.6580941794)
(0.2708709642 0 -0.754545898)
(0.3723588745 0 -0.8691201928)
(1.339359628 0 -0.8881548252)
(3.170308736 0 -0.5701269719)
(1.88039703 0 -0.4853650652)
(0.7743955679 0 -0.4384426167)
(0.8790509648 0 -0.1320532814)
(0.4152906854 0 0.2650287056)
(0.3157859873 0 0.2512533673)
(0.7320623505 0 0.2715691081)
(0.7697055945 0 0.337536488)
(0.7424786545 0 0.3607469968)
(0.7076024448 0 0.3243814495)
(0.3946318271 0 0.5024357989)
(0.2195051452 0 0.5895334186)
(0.1486360236 0 0.488214442)
(0.1057103014 0 0.3880889957)
(0.08108266476 0 0.3271200658)
(0.2538322862 0 -1.344809404)
(0.2662195251 0 -1.314128546)
(0.2502982415 0 -1.156824443)
(0.2541358368 0 -0.9981136874)
(0.3163906756 0 -1.022775517)
(0.395500386 0 -1.085346359)
(0.4792683483 0 -1.098947801)
(0.5127608147 0 -0.9867586168)
(0.388291956 0 -0.7234364577)
(0.1916089843 0 -0.515764751)
(0.1678724813 0 -0.4932455572)
(0.1912315956 0 -0.5250490325)
(0.2357611937 0 -0.6004285272)
(0.1967995585 0 -0.5688680234)
(1.492218983 0 -0.7350190529)
(3.498557424 0 -0.561711556)
(2.685741926 0 -0.5029801873)
(0.7718247222 0 -0.3775527636)
(0.6745062733 0 0.1787470322)
(0.380446592 0 0.2043636848)
(0.2998344386 0 0.2082458637)
(0.6808708735 0 0.2562950745)
(0.8154854822 0 0.3353976984)
(0.8039009042 0 0.4069885829)
(0.6232371065 0 0.3508090334)
(0.316037824 0 0.2261609989)
(-0.01022094646 0 0.4743063654)
(-0.2520757991 0 0.7424169093)
(-0.2018761014 0 0.6404780098)
(-0.04901528426 0 0.696488729)
(0.1859766128 0 -1.280808806)
(0.24634105 0 -1.106048803)
(0.3271070625 0 -0.9353175937)
(0.3560792312 0 -0.8906810464)
(0.3963028514 0 -0.8601840321)
(0.4289327026 0 -0.8135886109)
(0.4258896887 0 -0.728467006)
(0.3379004898 0 -0.596269523)
(0.1888344073 0 -0.4683004875)
(0.1429817035 0 -0.4237652472)
(0.1858210232 0 -0.4037249959)
(0.2278991138 0 -0.4149668038)
(0.4141869583 0 -0.4342096105)
(1.120585707 0 1.40136271)
(4.08520766 0 -0.6109309684)
(3.968562713 0 -0.5454060224)
(0.7884318509 0 -0.07755358814)
(0.4714967691 0 0.1032404524)
(0.3248779594 0 0.1172174865)
(0.2958011863 0 0.1735533227)
(0.5714267825 0 0.2397614358)
(0.8190594487 0 0.3304535787)
(0.3171236725 0 0.5341545243)
(-0.3131200502 0 0.513842985)
(0.1522694508 0 0.2135655597)
(0.1989100389 0 0.23955802)
(0.202536482 0 0.5960667897)
(0.3365502694 0 1.490771719)
(0.2699055541 0 1.348697345)
(0.5483640087 0 -1.310321988)
(0.4650854871 0 -1.032122333)
(0.3829016026 0 -0.8901518861)
(0.3640531269 0 -0.8213284766)
(0.3660659736 0 -0.7414466617)
(0.3692691813 0 -0.6822557663)
(0.3699311224 0 -0.6351649115)
(0.3724879167 0 -0.6044726143)
(0.4398993192 0 -0.6455659141)
(0.7781303631 0 -0.9466338646)
(0.7218116418 0 0.5042376152)
(0.238286642 0 -0.1818934824)
(0.2696467752 0 -0.2421612888)
(0.5488970356 0 -0.2146377617)
(4.151413986 0 -0.5827278154)
(4.859893299 0 -0.5919103168)
(1.024566394 0 0.2493100614)
(0.4922092145 0 0.1163057644)
(0.2747411434 0 0.03101586253)
(0.2981265551 0 0.1338111592)
(0.4858872899 0 0.08760869102)
(0.7682710875 0 0.1166998774)
(0.7689054999 0 0.8301523521)
(0.7984821114 0 1.400512319)
(0.6559071096 0 1.374942136)
(0.5971424417 0 1.341130299)
(0.4954465649 0 1.106118902)
(0.3325502344 0 0.9113078257)
(0.2981498632 0 1.038474635)
(0.7315029255 0 -1.2891806)
(0.5978601766 0 -1.008863468)
(0.3541362923 0 -0.7230102002)
(0.2800349888 0 -0.6384101072)
(0.2813609707 0 -0.5891610643)
(0.2809514306 0 -0.5436695364)
(0.3001375406 0 -0.5311782614)
(0.3891497906 0 -0.6003360636)
(0.6568291226 0 -0.8097806724)
(1.396846281 0 -1.136777219)
(0.8052680326 0 0.5546104031)
(0.2781490941 0 -0.02794987206)
(0.2384766435 0 -0.1720750212)
(0.3777532903 0 -0.1450619815)
(3.347060342 0 -0.4369539033)
(4.923424557 0 -0.5576108772)
(1.249635296 0 0.3126052276)
(0.8004262213 0 0.2098420305)
(0.2401291343 0 -0.05560293708)
(0.288445925 0 0.04953904418)
(0.365914203 0 0.0548647975)
(0.3652178287 0 -0.042251862)
(1.136618457 0 1.015605208)
(0.9750096871 0 1.199553397)
(0.8586962475 0 1.311310734)
(0.7923229211 0 1.367093208)
(0.5939421392 0 1.046370687)
(0.150848676 0 0.3144860408)
(0.5395630315 0 -0.8267070635)
(0.301976839 0 -0.5073449539)
(0.2264616864 0 -0.4233714088)
(0.2366246119 0 -0.4168051526)
(0.268715869 0 -0.4277487405)
(0.3489642258 0 -0.4810609658)
(0.5358459788 0 -0.6122848409)
(0.9241687995 0 -0.8301961451)
(1.317880427 0 -0.8613912938)
(0.4076977786 0 -0.09079342695)
(0.2789157806 0 -0.02198145814)
(0.2222275309 0 -0.1477112763)
(0.3211401314 0 -0.1181677612)
(1.519822463 0 -0.2043254694)
(3.927700389 0 -0.397577044)
(1.423993532 0 0.3471188598)
(0.8762339246 0 0.2224344515)
(0.3548979794 0 0.05402551248)
(0.3378716014 0 0.06841019878)
(0.2356330892 0 0.002424389279)
(0.307502429 0 0.1002577759)
(1.074672563 0 0.8552643027)
(1.01807716 0 1.021244107)
(0.5361099556 0 1.444744116)
(0.733854291 0 0.991955138)
(0.3699293545 0 0.4760304514)
(0.1131255053 0 0.1988169806)
(0.2818291354 0 -0.3800797114)
(0.2494353513 0 -0.3303533336)
(0.2588849423 0 -0.3574564598)
(0.2920912173 0 -0.5087924449)
(0.3881530704 0 -0.8598810742)
(0.4255172119 0 -0.4610243373)
(0.598590244 0 -0.5526535242)
(0.7954903537 0 -0.5985317563)
(0.7021631229 0 -0.4216416701)
(0.2783169696 0 -0.07983799943)
(0.3006425104 0 -0.04907190429)
(0.2218528303 0 -0.1425070901)
(0.3135563986 0 -0.1104288729)
(0.6644481661 0 -0.1532940504)
(1.808312208 0 -0.05740666382)
(1.423433213 0 0.3430611627)
(0.7608013119 0 0.1778245319)
(0.352633539 0 0.1830269773)
(0.4234538707 0 0.1838834246)
(0.2789477543 0 0.09245211935)
(0.2789001284 0 0.1278596652)
(0.6889286258 0 0.4885676223)
(1.121155004 0 0.3835778107)
(2.949735818 0 2.895751273)
(0.8390947752 0 1.034507861)
(0.2186733266 0 0.1595890994)
(0.5460959084 0 -0.9457307693)
(0.773940538 0 -1.268732448)
(1.194239713 0 -1.69840796)
(1.574404244 0 -1.630742178)
(0.4513348423 0 -0.4205916751)
(0.5191902478 0 -0.4170758451)
(0.5222831011 0 -0.3556554209)
(0.3624551636 0 -0.2155300559)
(0.2553080261 0 -0.09828344025)
(0.3048360302 0 -0.08080839682)
(0.3405578697 0 -0.2327401577)
(0.3999954312 0 -0.1747788586)
(0.6555574148 0 -0.2078991813)
(0.7180628037 0 0.1118526183)
(1.207120527 0 0.2833439357)
(0.598277996 0 0.129644522)
(0.3743601809 0 0.1951987748)
(0.3725506049 0 0.204108685)
(0.4426698298 0 0.1978680914)
(0.2723524921 0 0.1367634454)
(0.2508667492 0 0.1159115666)
(0.3085891712 0 0.1595678128)
(1.444441867 0 0.9709364808)
(0.3065788473 0 0.147019755)
(0.2326618534 0 0.1454096057)
(0.8068409504 0 -1.207456037)
(1.080099379 0 -1.424383675)
(1.46337573 0 -1.593901785)
(1.624361691 0 -1.369622753)
(0.3961019185 0 -0.3322076684)
(0.398701481 0 -0.2963270356)
(0.3540824021 0 -0.2371451517)
(0.2688713892 0 -0.1775969813)
(0.2563247778 0 -0.143519314)
(0.3221708298 0 -0.1812082565)
(0.5603499755 0 -0.3542790561)
(0.6837660508 0 -0.3280517908)
(1.04159931 0 -0.2823561407)
(0.6583640241 0 0.09760239308)
(0.838605256 0 0.1721620716)
(0.6104582858 0 0.1463443505)
(0.4071755184 0 0.2035521489)
(0.3724063034 0 0.2131150389)
(0.4753111498 0 0.1876536384)
(0.7557519929 0 0.5395254892)
(0.6907185768 0 0.5360682182)
(0.3326471434 0 0.203955422)
(0.9371137547 0 0.5002738543)
(1.052275095 0 0.9281975696)
(1.011909978 0 -1.092565832)
(1.073826232 0 -0.9897904436)
(0.7464975433 0 -0.6037148592)
(0.3927808389 0 -0.3460037591)
(0.5082414727 0 -0.483388691)
(0.5869433973 0 -0.5498817192)
(0.5564133437 0 -0.4970760661)
(0.4205413507 0 -0.07317396467)
(0.4141814592 0 -0.2552624346)
(0.6261203874 0 -0.3420435247)
(0.8103486296 0 -0.3338663873)
(1.165005989 0 -0.2379966305)
(0.6244423995 0 0.08298300572)
(0.7663195894 0 0.1411450365)
(0.634794042 0 0.1663233189)
(0.4266866949 0 0.2037864856)
(0.3943290603 0 0.2126318993)
(0.4247800563 0 0.1787999008)
(0.6893674195 0 0.4317157562)
(0.7080445632 0 0.5121871412)
(0.5006859761 0 0.365926342)
(0.6447575952 0 0.3251704114)
(0.5831252513 0 -0.5078272228)
(0.4495740817 0 -0.4039839177)
(0.4729377375 0 -0.4386210414)
(0.6376407047 0 -0.5933419586)
(0.836573379 0 -0.6914731367)
(0.9553765152 0 -0.573537197)
(0.5383380965 0 0.01530851451)
(0.4692894015 0 -0.2513481849)
(0.6402120703 0 -0.3051168914)
(0.8163611468 0 -0.2876705153)
(1.048015977 0 -0.1698255646)
(0.5925204171 0 0.06738921341)
(0.7580161325 0 0.1398618972)
(0.5915230434 0 0.1655843382)
(0.4382344884 0 0.1918397055)
(0.4250671731 0 0.207188454)
(0.41404764 0 0.1843528245)
(0.5848783415 0 0.3432525171)
(0.6386024108 0 0.4330590582)
(0.5398529644 0 0.3843504663)
(0.5520908297 0 -0.4928414871)
(0.6792816811 0 -0.5725432823)
(0.8402910625 0 -0.6023303722)
(0.8277599759 0 -0.4328032635)
(0.4857804771 0 -0.09763846476)
(0.4972126195 0 -0.2407015216)
(0.6330145783 0 -0.2678518434)
(0.7697967557 0 -0.2376787079)
(0.8800463721 0 -0.1203262686)
(0.5465490534 0 0.04868543292)
(0.6640705934 0 0.1242410317)
(0.5008986944 0 0.1395406374)
(0.4601715297 0 0.1759131587)
(0.459161481 0 0.1988457878)
(0.423342493 0 0.1844758381)
(0.5426218872 0 0.3074545455)
(0.5905608946 0 0.3822728369)
(0.6895231384 0 -0.5304634254)
(0.7562541147 0 -0.4897949571)
(0.6685457888 0 -0.3354232461)
(0.4708036017 0 -0.1756477553)
(0.5168415175 0 -0.2285635499)
(0.6158183645 0 -0.2352734069)
(0.7062438219 0 -0.1953830029)
(0.7341968342 0 -0.08953012547)
(0.5324294251 0 0.03137803346)
(0.5251364672 0 0.08637611066)
(0.4856974386 0 0.1176224011)
(0.4912801451 0 0.1618010863)
(0.484390626 0 0.19232276)
(0.6763306386 0 0.2909324804)
(0.4894389876 0 -0.2098515126)
(0.5387316165 0 -0.2188426809)
(0.5963788593 0 -0.209093479)
(0.6439544023 0 -0.1627819424)
(0.6253871019 0 -0.07155336752)
(0.5432172389 0 0.01319827341)
(0.48805961 0 0.05870138538)
(0.5088782449 0 0.1088005333)
(0.5018631707 0 0.1513435702)
(-0.4022087439 0 -0.1080421795)
(-0.3839117109 0 -0.08683167708)
(-0.3915105517 0 -0.08053596437)
(-0.4021406716 0 -0.07151683887)
(-0.4038585671 0 -0.0676946873)
(-0.3959724443 0 -0.0738966671)
(-0.3812431279 0 -0.07771628303)
(-0.277453299 0 -0.1082545834)
(-0.2948816448 0 -0.1325347555)
(-0.2932117226 0 -0.02480398393)
(-0.2573886558 0 -0.006595193707)
(-0.2697360207 0 -0.03116457731)
(-0.2991100254 0 -0.004296404479)
(-0.3059261849 0 0.01815291628)
(-0.3115991084 0 0.01732377634)
(-0.3404228031 0 0.03568237381)
(-0.3790979479 0 0.04719317154)
(-0.3725628671 0 0.04305637452)
(-0.405372128 0 0.027957785)
(-0.3970472464 0 0.04913735185)
(-0.4194555435 0 -0.04198339603)
(-0.5132862491 0 0.09886635229)
(-0.3861059367 0 0.09126752879)
(-0.6147798133 0 -0.3170255316)
(-0.609039779 0 -0.2874804305)
(-0.587259557 0 -0.2527017293)
(-0.5521624802 0 -0.2159269846)
(-0.5398927405 0 -0.2062772822)
(-0.5007020135 0 -0.1774775663)
(-0.4317651636 0 -0.1332812857)
(-0.4100641042 0 -0.1151833272)
(-0.3662511018 0 0.09240911711)
(-0.3572504832 0 0.1143598598)
(-0.3306407915 0 0.1057585459)
(-1.560983094 0 0.5893187115)
(-1.471643128 0 0.6004237017)
(-1.424285791 0 0.5746249383)
(-1.391217356 0 0.6100727882)
(-1.298047276 0 0.6050655844)
(-0.5653515008 0 -0.4191199165)
(-0.58302222 0 -0.3927268548)
(-0.6003673271 0 -0.3679664991)
(-0.60856845 0 -0.3552821723)
(-1.259918673 0 0.6514272022)
(-1.02385456 0 0.5467472868)
(-1.043782245 0 0.5473311931)
(-0.8626159647 0 0.4745311845)
(-0.4729593126 0 -0.4881530502)
(-0.492021381 0 -0.4800378663)
(-0.5135480368 0 -0.4703124725)
(-0.5092124099 0 -0.4653529344)
(-0.5358214257 0 -0.4524414713)
(-0.5480063681 0 -0.4305241305)
(-0.7729265647 0 0.4457686961)
(-0.5917957297 0 0.3528650942)
(-0.668459036 0 0.3848492699)
(-0.4020871104 0 0.2592669704)
(-0.2819984277 0 0.2065611888)
(-0.382292966 0 -0.4731073813)
(-0.4156440812 0 -0.5060788888)
(-0.4287117624 0 -0.4892232168)
(-0.2887325088 0 0.2420649444)
(-0.27203089 0 0.2353759511)
(-0.312231291 0 -0.4377519052)
(-0.3679380933 0 -0.5077801534)
(-0.3391323194 0 -0.447824424)
(-0.2286333553 0 0.225970293)
(-0.1938313148 0 0.2101210943)
(-0.3787731582 0 -0.5898048101)
(-0.4437987736 0 -0.6790704169)
(-0.5542042834 0 -0.8213637517)
(-0.4636300111 0 -0.6616864453)
(-0.1946597423 0 0.2581192186)
(-0.1261588897 0 0.2294840088)
(-0.1519515603 0 0.2022050299)
(-0.1235794324 0 0.2231906208)
(-0.463945795 0 -0.8424417565)
(-0.5351592344 0 -0.9793097416)
(-0.4626127252 0 -0.7724356171)
(-0.6913069148 0 0.9356948211)
(-0.6341907777 0 0.9036714559)
(-0.4176954574 0 0.593148272)
(-0.4752377665 0 -1.05195508)
(-0.4631117251 0 -0.9489757627)
(-0.8263907313 0 1.360548739)
(-0.419589452 0 -1.126843023)
(-0.4472766326 0 -1.219487257)
(-0.464410337 0 -1.142835501)
(-0.7557532382 0 1.52160133)
(-0.7514877274 0 1.591833598)
(-0.8120431473 0 1.529835511)
(-0.3501466422 0 -1.080861058)
(-0.3627960694 0 -1.120237809)
(-0.3797280967 0 -1.230928023)
(-0.4121563387 0 -1.227540797)
(-0.5730088201 0 1.521678871)
(-0.5503010443 0 1.511846838)
(-0.6597370076 0 1.57537041)
(-0.5344131817 0 1.492216543)
(-0.3304755057 0 -1.156745837)
(-0.3359809508 0 -1.111771117)
(-0.1093139191 0 0.3110147452)
(-0.2452970219 0 -0.9615364172)
(-0.2605507306 0 -1.022441307)
(-0.3141418458 0 -1.168151939)
(-0.02576504925 0 0.1802634304)
(-0.02667427805 0 0.1776506106)
(0.3326560461 0 -1.438279107)
(0.2901754289 0 -1.331844281)
(-0.1938244151 0 -0.8477931222)
(-0.006849566419 0 0.1900268403)
(-0.003956523547 0 0.1827335081)
(-0.02548672012 0 0.1785477655)
(0.6389905255 0 -1.594310099)
(0.7253123709 0 -1.669662783)
(0.6328651349 0 -1.625472616)
(0.1034673141 0 0.631893016)
(0.0930417779 0 0.5835346763)
(-0.0107882928 0 0.284451185)
(0.1434918863 0 -0.996498651)
(0.1473321334 0 -0.9894760036)
(0.6625142083 0 -1.544453786)
(0.1060773657 0 0.527418278)
(0.0888537719 0 0.4874014813)
(0.1128011785 0 0.5497016466)
(0.2028795515 0 -1.256512029)
(0.2015857719 0 -1.243003371)
(0.1723937507 0 -1.167223517)
(-0.02531517225 0 0.2696440627)
(-0.008173474971 0 0.2591952298)
(0.07259004565 0 0.308871378)
(0.09018306155 0 -1.376442273)
(0.262367776 0 -1.348070808)
(-0.07053625856 0 0.9588032225)
(-0.03600742112 0 0.611762502)
(0.361634695 0 -1.346926323)
(0.19624706 0 -1.333756453)
(0.2957134759 0 1.199979854)
(0.5230207955 0 -1.355793669)
(0.6670062212 0 -1.310711491)
(0.6023941311 0 -1.154448431)
(0.5094425874 0 -1.157427833)
(0.2691389467 0 0.6358621647)
(0.1711159697 0 0.4896327163)
(0.3082983227 0 1.011349885)
(0.7375787385 0 -1.211046964)
(0.7085960154 0 -1.133245032)
(0.6795925915 0 -1.156010108)
(0.101078774 0 0.2037191293)
(0.08915944659 0 0.1939703009)
(0.09544946084 0 0.2338805954)
(0.4913866177 0 -0.746474195)
(0.6142435807 0 -0.9580114711)
(0.131301111 0 0.192925928)
(0.3182663925 0 -0.5057280059)
(0.3439420159 0 -0.5626106506)
(0.2648589829 0 -0.353428666)
(0.2215450337 0 0.1474720598)
(0.1938783495 0 0.161911967)
(0.1767476989 0 0.1760522246)
(0.4858896679 0 -0.8456466518)
(0.6961101233 0 -1.134794181)
(0.8101124436 0 -1.26929931)
(0.6364722913 0 -1.079540192)
(0.8105758961 0 0.8136856968)
(0.8655394404 0 0.9634858823)
(0.2964242223 0 0.1467838766)
(0.9737435973 0 -1.241308318)
(0.9139053574 0 -1.293316679)
(1.110156633 0 0.8435678857)
(1.025819999 0 1.002835236)
(0.8407527101 0 -0.7868970787)
(1.03698393 0 -1.041360378)
(0.535401295 0 0.3121806376)
(0.9383732381 0 0.5333040047)
(0.4817961007 0 -0.4318198078)
(0.5083407717 0 -0.4420269051)
(0.4675481933 0 -0.4245453903)
(0.4766433586 0 -0.4370014068)
(0.4356674616 0 -0.402771505)
(0.6051054807 0 0.399890427)
(0.5877078587 0 0.4010393339)
(0.6047215956 0 0.4234775062)
(0.5507626189 0 0.3854847372)
(0.4886553016 0 0.3422565174)
(0.5156783114 0 -0.4659448868)
(0.581232261 0 -0.5077146785)
(0.6258884418 0 -0.5268687654)
(0.5998373887 0 -0.5263300046)
(0.5514391613 0 0.3121279507)
(0.5749475922 0 0.3473428785)
(0.5836821075 0 0.3589183126)
(0.7339139172 0 -0.5208483661)
(0.7298741839 0 -0.4529729987)
(0.7006476254 0 -0.3920603619)
(0.7477490084 0 -0.4309361459)
(0.6287716695 0 -0.3156178817)
(0.5246454227 0 -0.2319430966)
(0.5428036021 0 -0.228217055)
(0.4984646558 0 0.1546126802)
(0.4880136684 0 0.1766516258)
(0.4891092429 0 0.1815158416)
(0.4937687305 0 0.1841478556)
(0.5425991544 0 0.2064868276)
(0.517579771 0 0.209867072)
(0.6627968232 0 0.3106237731)
(0.5130920765 0 -0.2280043413)
(0.5203559919 0 -0.2258726116)
(0.5635494551 0 -0.2107527314)
(0.560319727 0 -0.2148589018)
(0.5903137282 0 -0.1988845172)
(0.6099178931 0 -0.1794620911)
(0.6255195109 0 -0.1910492864)
(0.6195166213 0 -0.151123995)
(0.615036022 0 -0.1132670278)
(0.6472529001 0 -0.1233631484)
(0.5903175989 0 -0.0668086708)
(0.5283335545 0 0.009958301081)
(0.527117335 0 0.01591880417)
(0.5412605248 0 0.003972401729)
(0.4819727369 0 0.04761079543)
(0.4936505419 0 0.05425772134)
(0.4865402145 0 0.05377756933)
(0.5042577531 0 0.08774711309)
(0.5094705301 0 0.1333711997)
(-0.3786333565 0 -0.1004119107)
(-0.3948166299 0 -0.09113342536)
(-0.3900462919 0 -0.08634567304)
(-0.4019704715 0 -0.07422699723)
(-0.4024317542 0 -0.06639241172)
(-0.4098290776 0 -0.06524018888)
(-0.4085284627 0 -0.04578560052)
(-0.2660111528 0 -0.03515445652)
(-0.2648130268 0 -0.07385510615)
(-0.3275797084 0 -0.01239860308)
(-0.2632547617 0 0.05335455286)
(-0.2533058271 0 0.02757446055)
(-0.2830424634 0 0.01254637901)
(-0.2950591941 0 0.01889833546)
(-0.3004501238 0 0.01835854079)
(-0.3497849074 0 0.0388563924)
(-0.4124124307 0 0.05476318415)
(-0.3920277533 0 0.05086506658)