/*--------------------------------*- C++ -*----------------------------------*\
| =========                 |                                                 |
| \\      /  F ield         | OpenFOAM: The Open Source CFD Toolbox           |
|  \\    /   O peration     | Version:  2.1.x                                 |
|   \\  /    A nd           | Web:      www.OpenFOAM.org                      |
|    \\/     M anipulation  |                                                 |
\*---------------------------------------------------------------------------*/
FoamFile
{
    version     2.0;
    format      ascii;
    class       volScalarField;
    location    "2.2";
    object      deltaf;
}
// * * * * * * * * * * * * * * * * * * * * * * * * * * * * * * * * * * * * * //

dimensions      [0 1 0 0 0 0 0];

internalField   nonuniform List<scalar> 
2828
(
1.277052347e-05
3.272871566e-05
7.133483573e-06
4.719557393e-06
1.048853288e-05
1.069504953e-05
9.325972481e-06
6.954932725e-06
9.42568332e-06
1.97454102e-05
6.975363386e-05
1.420068062e-05
1.105252851e-05
1.063366164e-05
5.061222349e-06
3.612288611e-06
4.240338199e-06
1.498042619e-05
1.280220406e-05
1.579078017e-05
1.856290715e-05
4.294379226e-06
5.419042561e-06
4.91057428e-05
4.694379099e-05
2.561105833e-05
1.547357548e-05
9.838080715e-06
3.093028955e-06
1.755247985e-06
2.337696112e-06
6.304050978e-06
1.585295799e-05
4.916645438e-05
1.744662182e-05
3.329779199e-05
5.158853504e-05
3.436922494e-05
6.712924647e-06
1.76401881e-05
4.403326333e-05
1.123539898e-05
1.005444758e-05
1.528859372e-05
5.029096991e-06
1.455092346e-06
8.885526098e-07
1.410667577e-06
3.82033618e-06
1.046752511e-05
1.985793156e-05
2.487657562e-05
0.000128724474
7.15289256e-05
3.293754346e-05
4.978608115e-05
2.931403022e-05
1.561210287e-05
1.964089722e-05
3.532600267e-05
2.142331488e-05
5.835236112e-06
1.896717088e-06
1.75743159e-05
2.079111495e-06
2.337507313e-06
1.205866875e-06
1.082877505e-06
3.020894973e-06
7.213021234e-06
1.307889455e-05
2.053708674e-05
2.498499419e-05
0.0001143128506
0.000123653449
8.518332705e-05
3.811106158e-05
2.098625168e-05
7.488314233e-06
3.779752622e-06
1.601967071e-05
4.226752282e-05
7.526274513e-06
1.973680682e-06
6.339420996e-07
6.936826002e-06
1.279792868e-06
1.076577248e-05
4.056602791e-06
1.364835574e-06
2.530264209e-06
4.216999049e-06
6.115525915e-06
9.395902743e-06
1.411392104e-05
7.967477705e-06
1.034635376e-05
7.266129476e-05
0.0001237107833
7.051872831e-05
1.96696683e-05
7.785408364e-06
2.444278956e-06
5.740559153e-07
3.093503324e-06
3.866778312e-05
5.290740622e-06
2.192486946e-06
1.073785316e-06
1.072431132e-06
9.249509122e-07
1.985077693e-05
9.211252002e-06
2.432170225e-06
2.330323859e-06
2.656377395e-06
2.981074716e-06
4.143427341e-06
5.861654197e-06
5.424096293e-06
8.414909444e-07
4.18192862e-05
6.751371415e-05
0.0001699754219
3.073093066e-05
8.233488248e-06
6.005094499e-06
3.366588151e-06
5.336759812e-07
1.79091365e-06
8.170714891e-06
4.663781362e-06
1.850066123e-06
8.578952458e-07
7.40913418e-07
2.826108158e-06
1.68948806e-05
1.442009125e-05
4.288671135e-06
2.546809256e-06
2.178041366e-06
2.0273753e-06
2.486825763e-06
4.142853035e-06
1.048352194e-05
2.104306031e-05
4.930861189e-05
6.309399397e-05
0.0002978863499
0.0002477270149
1.568868642e-05
1.02936541e-05
1.438941687e-05
3.303203611e-05
3.212577683e-05
4.744739577e-06
3.105891542e-06
1.534177925e-06
6.157411556e-07
5.486082685e-07
7.075006919e-06
8.271669088e-06
2.077184541e-05
1.788310003e-05
1.008441762e-05
3.367654175e-06
2.208961078e-06
2.06814831e-06
2.716930338e-06
4.14292824e-06
7.423390139e-06
1.616967906e-05
2.183096727e-05
0.0002968846255
0.0003023289015
0.0003006981221
0.0003600047852
0.00031634849
7.005946893e-05
4.271225545e-05
1.859685729e-05
1.204374251e-05
6.871140812e-06
3.531848418e-06
2.04607783e-06
9.227797767e-07
1.693993054e-06
1.449738768e-05
3.303202195e-05
2.540621197e-05
0.0002268038166
1.395680191e-05
2.209263176e-05
5.985098046e-06
3.309841584e-06
4.520390144e-06
8.124473916e-06
8.733711022e-06
9.681137373e-06
1.716660092e-05
1.942704909e-05
0.0005919088719
0.0007971019854
0.0008340915043
0.0006766437277
0.0004129601462
0.0003109466321
0.000237509236
4.317089954e-05
1.085493168e-05
4.826844442e-06
3.128320078e-06
6.07865289e-06
1.716022627e-06
2.013075096e-05
4.662009541e-05
3.355125686e-05
9.897227137e-06
4.244905186e-07
4.872745705e-06
2.218635963e-05
2.126133145e-05
1.624947388e-05
3.549633675e-05
5.00712921e-05
2.993082847e-05
1.235059113e-05
4.083434837e-06
4.117073444e-06
0.0004678819811
0.0006813884753
0.0007153336363
0.0006115427777
0.0005617488722
0.0005820640229
0.0004953720197
0.0003319946577
6.743809458e-06
3.937388511e-06
1.936145413e-05
4.231246583e-05
6.568954288e-06
3.320726006e-05
2.991479108e-05
1.260047449e-05
2.287368733e-06
6.230146143e-08
1.139242536e-06
9.051077509e-06
3.892388464e-05
7.402941901e-05
0.0001044542702
9.927869136e-05
5.472206234e-05
1.558044147e-05
2.308011537e-06
1.828914962e-06
2.552157836e-06
0.0003266992573
0.0004661843964
0.000580820935
0.0006790474244
0.000800741675
0.0008933408137
0.0008382690997
0.0005976933767
6.002639944e-06
1.00007653e-05
4.997191394e-05
5.318588267e-05
1.184039573e-05
1.877781518e-05
1.108839822e-05
4.326468831e-06
8.732456408e-07
2.298350952e-08
2.812403879e-07
2.334442049e-06
1.871485918e-05
4.666062432e-05
7.227650181e-05
8.339210136e-05
6.03674021e-05
2.303313113e-05
3.77395507e-06
3.728336257e-06
4.37837485e-06
0.0002203111803
0.0002432549849
0.0003447874554
0.0005018158551
0.0007117608645
0.0009789219246
0.001226010773
0.001244511712
0.0008483931441
4.424701762e-05
1.506982986e-05
1.353704965e-05
7.7153993e-06
2.985320206e-06
6.126883279e-06
3.050234199e-06
1.265752243e-06
5.954428888e-07
2.355493624e-08
1.937577888e-07
7.621751461e-07
6.572477542e-06
2.541740708e-05
5.024112156e-05
7.205480016e-05
5.882608734e-05
4.7230363e-05
1.522878928e-05
3.863542017e-06
2.067587057e-06
0.0002264944293
0.0001889172198
0.0001962798864
0.00031895845
0.0005743691147
0.001006410001
0.001495419869
0.001637504773
0.001059893102
5.23003347e-05
6.419272781e-05
3.610262723e-05
6.971714383e-07
8.124750247e-07
1.154933407e-06
1.100282893e-06
8.883975422e-07
1.519709465e-06
6.952557303e-08
3.515768237e-07
4.382050511e-07
2.132662044e-06
1.092537155e-05
2.912462036e-05
5.17746144e-05
3.975006836e-05
2.807622188e-05
3.978585614e-05
1.097607989e-05
9.339119775e-07
0.0002143873813
0.0001641725193
0.0001094179566
0.0001273878741
0.0002913044516
0.0008260937617
0.001576266301
0.001936687681
0.00131603272
1.262773333e-06
4.784306442e-06
4.945419217e-06
1.801006614e-07
2.392316119e-07
3.441664339e-07
3.647314924e-07
5.654452587e-06
1.038577401e-05
1.186570577e-05
2.101698576e-06
5.067250298e-07
5.637087656e-07
3.296357436e-06
1.380743279e-05
3.71276667e-05
2.048442721e-05
3.586665474e-06
6.183018306e-06
1.547769961e-05
1.849885879e-06
0.0001787484441
0.0001428404653
0.0001005806797
0.0001113773885
0.0001589038864
0.0004652483931
0.001437556645
0.002060692761
0.000750761815
1.056912925e-07
1.565102161e-07
1.442490452e-07
5.223026804e-08
5.10660212e-08
1.304719799e-07
7.673707079e-08
1.124211788e-06
3.066181278e-06
1.263623454e-05
2.181692155e-05
8.995559388e-06
3.283485784e-06
4.762462841e-06
1.359804567e-05
2.417594047e-05
1.512077813e-05
2.391294166e-06
3.316255747e-06
1.119955917e-05
3.147172811e-05
0.0001400024554
0.0001048498877
9.006577633e-05
0.0001255857253
0.0001757929473
0.0002684591889
0.00116238738
0.001819105311
0.001625597887
2.862334886e-06
1.639880745e-05
9.493643381e-05
0.0001651355328
0.0001637047402
9.443893487e-05
1.827100935e-05
1.303891966e-06
9.723268878e-07
2.329558269e-06
9.64320617e-06
2.26681862e-05
1.784660589e-05
1.815959775e-05
3.172012982e-05
1.281251725e-05
3.029546824e-06
6.807703413e-06
2.077677242e-05
2.873659837e-05
4.009496959e-06
2.58848932e-05
6.600875255e-05
0.0001310692755
0.0001871771124
0.0002106160005
0.0008618931958
0.001660032274
0.001905697581
0.0001553551002
0.0001855197552
0.0001804596797
0.000165234637
0.0001777876964
0.0001816142078
8.368633138e-05
6.694310018e-06
1.444202212e-06
1.404345103e-06
2.912317014e-06
9.065655897e-06
2.442598576e-05
4.073992131e-05
2.612961595e-05
3.38743994e-06
4.670044511e-06
2.483112613e-05
2.510309614e-05
5.366155352e-06
6.094736908e-06
2.666819128e-05
8.335717906e-05
0.0001450869455
0.0001761284069
0.000164838475
0.0005202103011
0.001546233822
0.001689766443
0.0008627483204
0.0003217924446
0.0001497435436
5.929000868e-05
0.0001088522388
0.0002129148045
0.0001689648647
0.0001131707427
5.38390783e-06
4.40151406e-06
1.097623224e-05
0.0001207128678
0.0001419936486
9.035423941e-05
1.965407352e-05
2.441052036e-06
2.545039009e-06
6.732483907e-06
5.38559545e-06
8.777435934e-06
1.149952767e-05
1.577729621e-05
0.000106869408
0.000152654839
0.0001423337758
0.0001100059448
0.0001783981243
0.0009118910175
0.000902297955
0.0009377140561
0.0004861083145
0.0001389399928
8.074475608e-05
9.641747313e-05
0.0001688770432
0.0002094933899
0.0001037249266
4.962429696e-05
7.653771474e-05
8.648640268e-05
4.926177947e-05
4.168268449e-05
9.012312646e-05
5.521510454e-05
1.064412493e-05
2.586687552e-06
2.643430035e-06
5.076196503e-06
1.010013661e-05
0.0002041728373
0.0001309846258
8.405548904e-05
5.987676082e-05
6.485667946e-05
0.0005556243598
0.000340365017
0.0008846887418
0.0004425505271
0.0001582847204
0.0001572266844
0.0001537994929
0.000143639531
0.0001787795168
0.0001845796895
0.0001186152304
1.850543773e-05
3.283506459e-06
3.848069108e-05
7.195503057e-06
3.202703621e-06
7.120248299e-06
1.859338976e-05
9.061846552e-06
2.142999321e-06
2.778678084e-06
3.833197085e-06
1.113490904e-06
3.200561471e-05
3.779168975e-05
4.674225282e-05
6.450186068e-05
0.0001070332307
0.0004465704738
0.0004176472222
0.0002184824667
7.325922274e-05
9.360556546e-05
0.000123272547
8.783400794e-05
7.266716827e-05
6.957903085e-05
5.787040284e-05
3.269789094e-05
2.261341766e-05
3.727895016e-05
1.634003369e-05
4.371074222e-07
1.866563429e-06
7.009860427e-06
5.06591611e-06
1.561596118e-06
1.645145995e-06
5.459119237e-05
3.079231205e-05
6.022626305e-05
7.973070587e-05
8.024821679e-05
0.0001339610287
0.0001774978869
7.208377651e-05
2.964939648e-05
5.670295312e-05
0.0001093492824
7.729883503e-05
6.695918207e-05
5.931725046e-05
5.698873702e-05
0.0001002149676
0.000132802413
4.104938151e-05
2.84340433e-05
2.340849866e-05
3.855889e-06
4.525846327e-06
2.230459808e-06
7.427116599e-07
1.331921179e-06
1.469045676e-06
3.191854326e-05
6.75910228e-05
0.0001017861427
0.0001084214768
0.00012165598
7.259533477e-05
1.471786457e-05
1.448641112e-05
4.944358879e-05
8.576281505e-05
5.913332495e-05
6.574128204e-05
6.263712097e-05
4.6290448e-05
2.967741713e-05
2.861998359e-05
3.227566172e-05
3.155918721e-05
2.092567595e-05
1.016960089e-05
1.593245833e-06
2.240799017e-06
3.645228374e-06
4.881696356e-06
4.879910718e-05
0.0001147796036
0.0001568057357
0.000223184646
0.0001929612225
7.609616161e-05
1.622902902e-05
1.6973335e-05
2.931339192e-05
4.366733533e-05
5.956310144e-05
6.558079487e-05
5.348699804e-05
2.908671562e-05
1.753972277e-05
2.490159499e-05
3.232383661e-05
2.935733257e-05
9.837043888e-06
1.523386921e-06
6.531612839e-06
5.008769788e-05
0.000104058371
0.0001660645316
0.0002427080725
0.0002930634149
0.0001852808904
5.316526983e-05
1.850037158e-05
1.52255203e-05
2.810375523e-05
4.661479834e-05
6.351193026e-05
6.337794218e-05
3.722919519e-05
1.085375624e-05
1.214823853e-05
2.311719201e-05
3.574088804e-05
2.640264582e-05
1.173202702e-05
0.0001499253959
0.0001976331441
0.0002464474231
0.0001623816491
1.711788979e-05
6.781455095e-06
6.6916017e-06
1.334386659e-05
2.853005486e-05
5.197631706e-05
7.031367914e-05
5.307365883e-05
1.433282739e-05
1.864435938e-06
6.023104525e-06
1.94078399e-05
8.082274188e-05
0.0001746624707
0.0002739784177
0.0001341674787
1.321740694e-05
7.169149888e-06
3.450115735e-06
4.017431528e-06
1.100035143e-05
2.977298544e-05
6.52033403e-05
7.184748286e-05
3.189194989e-05
3.005082497e-07
1.189187425e-06
1.828913488e-05
1.037226575e-05
4.078797683e-06
1.076213165e-06
1.381938291e-06
6.036060927e-06
3.161464168e-05
8.26901694e-05
7.299495537e-05
9.311318123e-06
8.750443242e-06
8.983538509e-06
1.104512921e-05
1.314457493e-05
1.401077092e-05
1.316030554e-05
2.88967916e-05
1.543020878e-05
5.647372615e-05
6.046121686e-05
4.451283789e-05
9.268725307e-06
6.915012295e-06
5.255321865e-06
7.058799481e-06
1.018534722e-05
7.786353184e-06
1.110583208e-05
7.761987649e-06
6.029999962e-06
4.757218293e-06
4.177178508e-06
1.254820811e-05
1.144805873e-05
1.057206836e-05
1.009166612e-05
9.881966469e-06
9.373910931e-06
7.084199264e-06
8.389756334e-06
2.466629059e-06
2.532649525e-06
3.679490148e-06
3.169209534e-06
5.521864888e-06
6.013318681e-06
9.162216712e-06
1.293158747e-05
1.721630625e-05
1.551058953e-05
1.547971383e-05
1.402253528e-05
1.267577809e-05
1.745692473e-05
1.824914189e-05
1.983038517e-05
0.0001253581062
0.0001506303882
0.000146569232
5.829851255e-05
2.145747179e-05
2.014688921e-05
1.721372741e-05
2.144121305e-05
2.232820931e-05
2.536114206e-05
2.754267443e-05
0.0001194661998
0.000142386941
0.0001400337062
2.008800963e-05
1.549425994e-05
3.563238788e-05
6.250029489e-05
7.891576179e-05
5.521519613e-06
5.783958524e-06
7.641110098e-05
4.708254727e-05
3.550362853e-05
3.009275623e-05
8.585880642e-06
1.363584305e-05
6.606314129e-06
1.858183168e-05
1.362275796e-05
2.396349618e-05
3.633093512e-05
1.517412167e-05
1.906764861e-05
2.171285807e-05
0.0001380394268
7.551912294e-05
2.169935724e-05
0.0005295841986
0.0006198009256
0.0002601250825
1.160185914e-05
1.389812207e-05
1.893818673e-05
0.0004985970613
0.0005620218036
0.0006895293687
0.0006967375853
1.996509826e-06
2.934357051e-06
6.429926973e-06
3.201138262e-06
0.0003309857203
0.0003985265114
2.544479511e-06
0.0002345159361
0.0002532643127
0.0002889869451
2.03910825e-06
1.706598134e-06
0.0002219633196
0.0002134649147
0.000226430239
9.464899866e-07
6.355324742e-07
1.438889282e-06
0.000224527327
0.0002027292428
0.0002078781633
1.665590563e-06
8.088761936e-07
5.573585537e-07
0.0001972530973
0.0001815146211
0.0001943573733
1.7344853e-05
2.639034566e-05
6.338336651e-07
0.0001564851663
0.0001464249699
0.000166769401
2.089628924e-05
8.670584999e-06
3.051518325e-05
6.749150363e-05
0.0001217510867
4.096560326e-06
2.946607791e-06
1.124001182e-06
2.739390276e-05
8.710823753e-06
1.468742014e-06
4.496382703e-05
6.180488965e-05
5.265237742e-05
1.013768066e-05
1.272805985e-05
1.141704131e-05
7.989096713e-06
9.958214224e-05
5.872170854e-05
7.892673539e-06
9.451853874e-06
1.20012181e-05
0.0002333641285
0.0002351706298
2.371461263e-06
9.72056732e-07
4.398185372e-05
1.951443602e-05
1.509613414e-06
1.569343203e-06
1.679866074e-06
9.357628531e-05
8.530211948e-07
1.270626109e-05
3.702346351e-05
1.385365183e-06
1.773141881e-06
9.43440966e-07
5.710952666e-05
2.812849913e-05
6.26064092e-06
3.458936139e-06
2.635081458e-05
1.454494246e-05
8.38124823e-06
8.247033516e-06
7.46207154e-05
7.295390219e-05
9.650996858e-05
0.0001209221278
0.00013406837
4.639295945e-05
3.81500123e-10
2.333346225e-07
2.652713039e-10
9.883362471e-06
0.0001248811426
0.0001500519802
0.0001672839341
0.0001781523529
5.386923523e-07
8.360657337e-07
3.829626335e-05
0.0001794806082
0.0002727204412
0.0002583116176
0.000179816083
0.0001156653604
2.269883019e-05
2.292216533e-05
5.008524577e-05
1.485440052e-06
4.253439777e-07
7.020257687e-07
4.969422272e-07
3.349278019e-07
4.7209859e-07
2.039204121e-05
1.438188621e-05
7.152954796e-06
7.322328689e-06
5.189920326e-06
3.199362757e-06
2.101313242e-06
1.41384725e-06
3.566544209e-07
8.983001896e-07
4.53088798e-08
3.89798563e-08
2.777995794e-06
1.369682631e-07
6.226743595e-07
1.364134484e-05
1.319085689e-06
8.291518247e-05
7.7289486e-05
5.237347143e-06
5.203422825e-06
7.052679907e-06
6.595203515e-06
1.128870958e-05
1.157938387e-05
3.400673344e-05
6.324447474e-05
4.89525423e-05
6.530836238e-05
4.584794841e-05
5.953510972e-05
2.169399548e-05
8.460493849e-06
8.412276086e-06
1.487440145e-05
1.501540129e-05
1.264873536e-05
1.056495052e-05
6.398497707e-06
7.168625699e-06
4.061646075e-06
2.908703554e-06
3.866522102e-06
1.746895885e-05
2.50735593e-05
1.280448838e-05
3.526059124e-05
3.894207736e-05
1.963157148e-05
3.253409765e-05
1.939098967e-05
1.134373834e-05
4.416175245e-06
4.947640225e-06
4.2601405e-06
8.120727777e-06
2.980590869e-05
1.722081969e-05
5.437813878e-05
4.670883094e-05
6.259951239e-05
2.568390099e-05
1.235969535e-05
2.729861536e-05
2.081340241e-05
1.449926011e-05
1.014509064e-05
1.471621553e-05
1.195815135e-05
1.493194777e-05
7.628356527e-06
3.932014501e-06
5.365769293e-06
2.159073922e-06
1.443469323e-06
2.1017258e-06
1.223385881e-06
1.338037266e-06
1.833332525e-06
1.781452878e-06
2.756506395e-06
3.606832321e-06
4.709001336e-06
8.111502112e-06
1.167034236e-05
2.267462404e-05
3.622100551e-05
2.197306846e-05
5.055254222e-05
5.360083279e-05
4.681088413e-05
4.607725897e-05
3.51795452e-05
4.578132369e-05
2.551752796e-05
1.805919029e-05
2.11912701e-05
1.251486915e-05
1.875488686e-05
9.268219034e-06
2.768782175e-05
3.781126335e-05
4.029683559e-05
2.844575073e-05
1.376948662e-05
2.578208664e-05
6.251279237e-06
3.298598558e-06
4.714717546e-06
2.484156347e-06
4.733740112e-06
1.138635577e-05
1.58394143e-05
7.281502429e-06
8.852339703e-06
3.104407459e-06
1.373118388e-06
2.458072331e-06
1.334733341e-06
1.078498247e-06
1.034247467e-06
8.315507763e-07
8.50446282e-07
1.008649554e-06
1.181584482e-06
1.917560111e-06
2.23716157e-06
3.329436239e-06
5.634256354e-06
6.536773115e-06
8.827382686e-06
1.279279468e-05
1.535910758e-05
0.000126317089
0.0001885746178
0.0001766660852
8.004335994e-05
3.087575153e-05
2.456787336e-05
4.079705022e-05
4.426361696e-05
4.776152758e-05
3.525124297e-05
2.377924762e-05
4.061396919e-05
1.530900867e-05
1.035632057e-05
2.065768304e-05
8.357254258e-06
9.948115265e-06
1.435426864e-05
2.194228675e-05
4.114646401e-05
3.100547716e-05
3.740116602e-05
2.499983854e-05
3.403614161e-05
1.274925926e-05
6.007304628e-06
1.084230239e-05
3.165403981e-06
1.819490047e-06
3.665684398e-06
9.93902484e-07
3.780275271e-06
6.204844102e-06
1.35585098e-05
8.581636064e-06
7.997004491e-06
1.733349914e-06
5.766595425e-07
7.688999966e-07
5.331168615e-06
3.988636441e-06
1.907411629e-06
2.22723256e-06
1.275627309e-06
9.094767207e-07
1.13154496e-06
1.664003792e-06
1.733614152e-06
2.762733105e-06
4.121117917e-06
4.893697276e-06
5.596954304e-06
7.223247507e-06
9.943397999e-06
9.120504629e-06
1.146627504e-05
1.657221143e-05
1.437622528e-05
1.919854086e-05
2.59156504e-05
0.0001088371407
0.000167004296
0.0001546033718
0.0001195782766
0.0002129186509
0.0002011239674
8.295775725e-05
3.44908e-05
3.617484007e-05
2.890279538e-05
2.038015008e-05
3.181637154e-05
1.219258217e-05
6.922039267e-06
1.255824113e-05
3.883454647e-06
2.190294481e-06
4.793531909e-06
1.392257062e-06
1.273911328e-06
4.776700168e-06
8.28596124e-06
3.294313301e-05
4.529376289e-05
5.004556051e-05
1.957428956e-05
1.880675813e-05
5.093637472e-06
2.468358297e-06
3.515121063e-06
1.573128036e-06
1.112550345e-06
1.210239106e-06
5.986077005e-07
8.878376121e-07
1.735810847e-06
2.588043801e-06
2.02172786e-06
5.886917812e-06
7.349809499e-07
9.911248518e-07
6.545075059e-07
1.666841334e-05
1.226262213e-05
7.665296255e-06
6.54495463e-06
3.204342876e-06
2.04274709e-06
1.807103837e-06
1.873430999e-06
1.712429067e-06
2.37624109e-06
2.85667823e-06
3.395950743e-06
3.242762065e-06
3.628243271e-06
5.075341959e-06
4.146708277e-06
4.940463089e-06
7.516013454e-06
6.104923222e-06
8.724505845e-06
1.317094302e-05
9.230538546e-06
6.800433844e-06
1.045343227e-05
4.39817944e-05
0.0002332941129
0.0001823095914
0.0001405899674
0.0002451986725
0.0002282962324
5.044155741e-05
1.794683765e-05
2.694296871e-05
1.282475484e-05
8.906895404e-06
1.30191423e-05
5.977625783e-06
3.950925267e-06
4.518795748e-06
2.211523592e-06
9.257707882e-07
1.167549948e-06
4.339222445e-07
3.086073714e-07
3.595934852e-07
1.436556802e-06
6.698341313e-06
1.574907276e-05
1.983781253e-05
2.832703645e-05
3.035196112e-05
7.348255394e-06
3.876589535e-06
2.853113965e-06
3.115814631e-06
2.407054342e-06
1.873883839e-06
1.600926162e-06
1.76532674e-06
1.111811423e-06
8.536094184e-07
3.003685444e-07
9.812330687e-08
1.729472094e-06
2.667921835e-06
1.680169308e-06
1.950450638e-05
1.809738837e-05
1.610175545e-05
1.178927586e-05
6.136475092e-06
4.598605228e-06
3.208934908e-06
2.460798574e-06
2.123914255e-06
2.386041343e-06
2.381704182e-06
2.53608111e-06
2.337209226e-06
2.297657092e-06
2.767849727e-06
2.342961082e-06
2.560907787e-06
3.409113025e-06
3.036027949e-06
3.86487222e-06
5.698080482e-06
4.407045741e-06
5.622486181e-06
5.114651857e-06
3.493761482e-05
4.744012474e-05
4.094555886e-05
0.0001631066024
0.0002814077956
0.000224805829
0.0001863792265
0.000231789887
0.0002459917321
1.835416918e-05
6.587118518e-06
1.055015717e-05
5.874570194e-06
6.878020895e-06
6.849580096e-06
8.705225137e-06
1.139949915e-05
5.243536938e-06
1.17920151e-05
7.488446687e-06
1.184439033e-06
3.694271919e-06
2.361446665e-06
4.855003772e-07
4.194116591e-06
4.277025014e-06
4.224890424e-06
3.291954746e-06
2.729157795e-06
1.30345067e-05
2.225611221e-06
1.575357608e-06
2.509839771e-06
1.045465608e-06
6.475806201e-07
1.292967517e-06
4.083545197e-07
7.062873409e-07
1.000995567e-06
2.04410075e-06
3.397709919e-06
1.083487693e-06
4.526964745e-06
5.956618678e-06
3.95856558e-06
1.416134303e-05
1.609507507e-05
1.804834638e-05
1.684726826e-05
1.155311771e-05
8.178062129e-06
6.252763266e-06
3.788467413e-06
2.951353597e-06
2.850097694e-06
2.398917289e-06
2.341399728e-06
2.131553659e-06
1.973009532e-06
2.058237163e-06
1.932157939e-06
2.049393782e-06
2.147750797e-06
2.363202703e-06
2.919621657e-06
3.123015591e-06
3.806650615e-06
5.188502503e-06
6.522972528e-06
7.299155789e-06
1.052594403e-05
1.519522592e-05
0.0001447081959
0.0001661240989
3.313593237e-05
0.000172185475
0.0002216979471
0.0001496948487
0.0002813168507
0.0002825305085
0.0003148827031
0.0002281521836
0.000105247008
0.0002421913602
2.423531505e-05
1.852969021e-05
9.951672678e-06
1.763048522e-05
1.55021835e-05
1.167595109e-05
1.51816215e-05
1.510653728e-05
2.060385655e-05
1.56334982e-05
1.746744396e-05
4.25059586e-05
1.948879897e-05
1.503826068e-05
1.369564358e-05
4.201743395e-06
3.275716956e-06
4.280362124e-06
2.407979924e-06
1.700688047e-06
2.225975637e-06
1.115947905e-06
7.133851384e-07
9.977013016e-07
5.934389434e-07
1.102012001e-06
4.358076863e-07
2.970976004e-06
8.590756745e-06
1.85080478e-06
1.863892544e-05
1.948850121e-05
9.056490095e-06
1.616222446e-05
1.570999153e-05
9.452783546e-06
8.428524795e-05
1.125202909e-05
1.293810409e-05
1.651840195e-05
2.087129839e-05
1.648306781e-05
1.601725324e-05
7.96040711e-06
5.311832554e-06
4.241265701e-06
2.95216679e-06
2.574606247e-06
2.500104369e-06
2.409992648e-06
2.049258842e-06
2.638649176e-06
3.223986077e-06
2.294373741e-06
4.00456164e-06
4.740422247e-06
3.311801076e-06
5.457125902e-06
6.468657424e-06
5.408541138e-06
8.229583598e-06
1.150570039e-05
1.076629459e-05
1.753576851e-05
2.315764124e-05
2.172772829e-05
0.000723430006
0.0007950677312
0.0003057003632
0.0007860623808
0.0007293491675
0.0003022325902
0.0006518667184
0.000512196069
0.0003149542728
0.0003898499959
0.0001987359293
0.0001300804683
0.0001712250877
0.0001316520489
5.023874173e-05
0.0001150442876
6.023240466e-05
2.538091e-05
2.400129532e-05
1.639484391e-05
1.534002569e-05
1.172200234e-05
8.063801739e-06
9.091843021e-06
5.555203828e-06
3.997535398e-06
5.29759189e-06
3.058324183e-06
2.544789468e-06
2.694827317e-06
2.348827119e-06
1.945989443e-06
1.471389938e-06
1.012787624e-06
1.902733709e-06
8.01223981e-07
7.172126183e-06
2.085551861e-05
5.761119942e-06
3.520145768e-05
4.181274391e-05
2.564530909e-05
3.996303831e-05
3.23106229e-05
3.052748621e-05
3.844342e-05
0.000143967947
4.48676126e-05
0.0001860883452
9.244670197e-05
2.684296647e-05
1.608143516e-05
1.824013225e-05
2.167885802e-05
2.488953721e-05
1.932276676e-05
1.239632126e-05
1.045158776e-05
6.544989695e-06
3.841562377e-06
5.911180349e-06
7.43169734e-06
3.518638953e-06
1.156558599e-05
1.740495525e-05
6.35259444e-06
2.108364435e-05
2.009470879e-05
8.844723563e-06
1.619226601e-05
1.272085348e-05
8.744436869e-06
1.131621882e-05
1.079407997e-05
1.205720641e-05
1.135395238e-05
1.1190839e-05
2.115533161e-05
0.0007950857444
0.0008409382033
0.0008500645151
0.0008116475137
0.0007356873085
0.0007681247168
0.0006281449083
0.0005102275258
0.0005119637324
0.0004594409377
0.0004317699725
0.0003086724012
0.0004477483879
0.0004199606103
0.0002642497558
0.0003637249724
0.0003306089649
0.0001681899433
0.0001387509642
1.692762382e-05
1.640683038e-05
8.98892378e-06
5.980975637e-06
7.16061562e-06
4.182058435e-06
3.647117905e-06
3.541940643e-06
5.991460005e-06
1.380635573e-05
4.056100868e-06
2.055751416e-05
1.524880595e-05
5.495019132e-06
3.56477325e-06
1.324923064e-05
5.899348431e-06
3.166988058e-05
4.346237345e-05
3.849942707e-05
4.199198449e-05
3.273278862e-05
4.346633067e-05
2.156678984e-05
1.166096188e-05
2.132146911e-05
4.539567932e-06
9.764109862e-07
2.446289302e-06
1.652644108e-07
7.88604132e-07
1.644358556e-06
2.476930932e-06
6.701879497e-06
1.20507665e-05
1.563496273e-05
2.775826985e-05
2.646886043e-05
3.553583321e-05
3.935409934e-05
1.606249369e-05
4.747478596e-05
6.252545856e-05
2.306434718e-05
7.859923289e-05
8.768270712e-05
4.692190347e-05
8.427851864e-05
6.842662594e-05
4.287090872e-05
4.611279682e-05
2.572529556e-05
1.855548834e-05
1.240810896e-05
3.241744142e-06
6.703805961e-06
1.828885346e-06
1.7496452e-06
3.55591102e-06
0.0003858952331
0.0004762560448
0.0005845613727
0.0005591203091
0.000615151679
0.0007271956623
0.0006324113409
0.0006420909634
0.000675930409
0.0006383527847
0.0006410593609
0.0005588769947
0.0006812199779
0.0007105575803
0.0005638491993
0.0007302664601
0.0007444110218
0.0005788952792
0.0006543041782
0.0005603381289
0.0004492019169
0.0004781938663
0.0001526603704
3.949770808e-05
5.245548118e-06
3.792731226e-06
4.673920243e-06
5.543186371e-06
1.710252956e-05
6.637286913e-06
4.108823883e-05
5.884415092e-05
3.768644581e-05
5.597845827e-05
3.295217291e-05
2.640058605e-05
9.850726472e-06
1.94585979e-05
1.899156912e-05
2.71296818e-05
2.543000999e-05
3.640307372e-05
1.884945761e-05
1.241297866e-05
2.080002676e-05
7.39266088e-06
3.736411521e-06
6.352260769e-06
1.353100475e-06
3.708050222e-07
5.033785974e-07
3.192566442e-08
1.487460511e-07
3.342452055e-07
5.228571499e-07
1.571755137e-06
3.310678196e-06
4.653974223e-06
1.32674709e-05
2.168085548e-05
2.912653563e-05
4.591676528e-05
5.646803509e-05
6.106705355e-05
7.62689495e-05
9.121537876e-05
8.86827535e-05
9.379040166e-05
0.0001082500555
8.930968964e-05
7.596544943e-05
7.940544855e-05
5.649774187e-05
3.603664913e-05
3.228726552e-05
1.786430085e-05
6.052318853e-06
4.870334335e-06
2.692847821e-06
1.94375586e-06
1.832480372e-06
1.923174205e-06
2.251192228e-06
2.143175975e-06
0.0002785304395
0.0003398749929
0.0003951519763
0.0004048931051
0.0004839869283
0.0005354196985
0.0005496492031
0.0006254331719
0.0006307240547
0.0007121869407
0.000798490255
0.0007268904233
0.0009047914183
0.001006942063
0.0008627935432
0.001061786297
0.001108870924
0.0009216631707
0.001037698643
0.0008659870002
0.0006999966525
0.0007221549675
0.0004539808506
0.0003035902828
1.752606853e-05
5.147140063e-06
3.990234456e-06
1.268277937e-05
2.587617438e-05
2.831837154e-05
3.570304646e-05
3.798594255e-05
6.016253271e-05
3.266995793e-05
2.043860549e-05
3.168045721e-05
9.355716983e-06
1.07192571e-05
1.597604535e-05
1.143579786e-05
9.084166849e-06
1.588261599e-05
6.090507279e-06
3.908884452e-06
7.183467575e-06
2.387074213e-06
1.33381884e-06
2.247795918e-06
6.293147277e-07
3.002234144e-07
3.122154372e-07
2.108675688e-08
6.142926159e-08
8.314749257e-08
2.027278541e-07
4.852283508e-07
7.929251403e-07
1.242226439e-06
3.887917334e-06
7.259964381e-06
1.12788624e-05
2.300096825e-05
3.344100618e-05
3.478246859e-05
4.674539734e-05
5.962264979e-05
5.983609022e-05
7.167460706e-05
8.136480456e-05
7.808791122e-05
7.541821255e-05
7.632523597e-05
6.15180773e-05
4.752356562e-05
4.138099126e-05
3.100583258e-05
1.51448084e-05
8.403859405e-06
7.130955112e-06
4.570594763e-06
2.991591111e-06
3.531246315e-06
2.752424629e-06
4.8204264e-06
0.000211219703
0.0002311909109
0.0002879244691
0.0002724372715
0.0003422258503
0.0004244829582
0.0004248350312
0.000527573056
0.000594616839
0.0006669101612
0.0008259621738
0.0008352804412
0.001014466795
0.001232696045
0.001132282257
0.001375870437
0.001490830086
0.001301619087
0.001448732509
0.001232447344
0.00104895015
0.0009667325738
0.0006950990054
0.0005780657687
2.232948182e-05
3.140267953e-05
9.684016721e-06
4.22098032e-05
4.038536138e-05
1.69660935e-05
2.658584579e-05
9.957188457e-06
8.958929375e-06
7.780973031e-07
1.159293373e-06
6.864117949e-06
1.658023647e-06
2.41022751e-06
5.459229171e-06
2.804452363e-06
2.21879891e-06
4.713184884e-06
1.486700143e-06
1.091730621e-06
1.962847672e-06
8.115247081e-07
8.19478917e-07
8.871101958e-07
7.660177975e-07
6.250116217e-07
3.845432087e-07
3.270727704e-08
6.354535395e-08
5.647500353e-08
2.315630761e-07
3.772621637e-07
3.864018561e-07
5.566673937e-07
1.200240457e-06
2.115020984e-06
3.771974664e-06
9.350905143e-06
1.506160021e-05
1.72525849e-05
2.728792648e-05
3.70143564e-05
3.954735886e-05
5.255698365e-05
6.324636004e-05
6.277903167e-05
6.630707203e-05
7.259416776e-05
5.067227686e-05
4.692288521e-05
5.393912816e-05
4.983995072e-05
5.012372816e-05
3.267634472e-05
3.723841151e-05
1.469956445e-05
6.280875671e-06
3.673833812e-06
1.558919091e-06
2.829005099e-06
0.0001743203448
0.0001483279729
0.0001810394581
0.0001381344814
0.0001545099894
0.0002431995236
0.000205086358
0.0002949196108
0.0004234297631
0.0004404734802
0.0006521367742
0.0007651849473
0.0009472166075
0.001316817607
0.001299723714
0.001565737451
0.001806517395
0.001662592295
0.001801013626
0.001508322078
0.0013918947
0.001134086888
0.0004841062305
0.0006719617618
5.39727984e-05
5.168766015e-05
5.592351373e-05
5.742639723e-05
5.072611667e-05
5.684168245e-05
3.258398826e-05
1.203632348e-05
1.308832236e-05
7.310055447e-07
4.961561632e-07
6.448058121e-07
5.440718619e-07
6.955701191e-07
1.005599634e-06
8.672965408e-07
9.591314564e-07