/*--------------------------------*- C++ -*----------------------------------*\
| =========                 |                                                 |
| \\      /  F ield         | OpenFOAM: The Open Source CFD Toolbox           |
|  \\    /   O peration     | Version:  2.1.x                                 |
|   \\  /    A nd           | Web:      www.OpenFOAM.org                      |
|    \\/     M anipulation  |                                                 |
\*---------------------------------------------------------------------------*/
FoamFile
{
    version     2.0;
    format      ascii;
    class       surfaceScalarField;
    location    "2.2";
    object      phi;
}
// * * * * * * * * * * * * * * * * * * * * * * * * * * * * * * * * * * * * * //

dimensions      [1 1 -1 0 0 0 0];

internalField   nonuniform List<scalar> 
5536
(
9.779011598e-10
-3.187634427e-09
-1.315505014e-09
3.621463172e-09
-3.473207192e-08
-5.778627886e-09
4.848635352e-10
-1.599472525e-09
-9.79019337e-11
3.115053742e-11
-7.524786943e-10
7.128913582e-11
-1.327363304e-10
-8.706804727e-10
-6.545309244e-10
-3.171173505e-10
2.544241757e-10
-5.684987787e-10
-1.646584131e-10
3.792211101e-10
1.62858673e-10
-2.838038138e-10
-1.531754348e-10
6.185214857e-10
2.266500432e-10
-4.404615714e-10
-4.918384939e-10
5.506660063e-09
1.828440376e-09
-1.186530465e-08
-7.972290773e-09
5.157422471e-08
1.479739899e-08
-5.321768633e-08
-1.214685699e-08
2.948729845e-09
1.149793567e-09
-6.210524902e-09
1.999594483e-10
1.083876327e-09
-8.771488054e-11
-1.368386154e-09
1.465573458e-10
7.792931409e-10
-1.980884272e-10
-8.279646156e-10
2.027903368e-10
4.852764053e-10
-1.742788107e-10
-4.052473024e-10
1.460701026e-10
4.412445631e-10
-2.689115205e-10
6.671419526e-11
-1.243546625e-10
-1.239160917e-10
-3.226250106e-10
1.821733653e-10
-9.389617808e-10
-6.602838862e-10
7.776706131e-10
5.571951801e-10
-1.175477706e-09
-5.85179743e-10
1.168453091e-09
8.05301942e-10
-4.532534935e-09
-1.191902403e-09
1.82542649e-09
1.199652133e-09
-5.572158546e-09
-6.023540043e-10
2.341322418e-10
1.492925393e-10
-2.438092516e-10
-1.05995258e-10
3.411102899e-10
1.316877609e-10
-5.734079579e-10
-1.122419485e-09
1.98360346e-08
8.008008012e-09
-2.257066584e-08
-1.598777461e-08
3.961128759e-08
1.370570187e-08
-2.100008675e-08
-6.576392266e-09
9.755881472e-09
1.489728361e-09
-9.430272633e-09
1.271068297e-09
1.397980416e-09
-1.812908907e-10
-1.344505339e-09
1.78137349e-10
7.849417689e-10
-2.45260916e-10
-6.171613971e-10
1.957045863e-10
3.261843748e-10
-1.371988511e-10
-2.450558368e-10
1.015756004e-10
2.041091795e-10
-8.202238961e-11
-1.541130671e-10
7.607640712e-11
2.426329658e-10
-8.39301776e-11
-1.910263069e-10
1.077662911e-10
5.61693558e-10
-1.668236183e-10
-4.151397567e-10
2.97424877e-10
-1.058228362e-09
8.035723187e-10
-4.772923916e-10
1.323730816e-09
-4.590279561e-09
-1.268035675e-09
1.115011324e-09
1.229122333e-09
-1.781680329e-09
-1.514975171e-09
3.467153464e-09
2.881246003e-09
-8.318138307e-09
-5.300498055e-09
1.047045833e-08
6.789332081e-09
-1.201265298e-08
-6.164927542e-09
8.191409466e-09
4.248812934e-09
-7.111139567e-09
-2.12106355e-09
3.844203417e-10
3.979997545e-10
-8.217133384e-10
-3.138415643e-10
1.691700209e-09
9.012409827e-10
-3.288626124e-09
-4.401885189e-09
1.688387336e-08
8.547819638e-09
-8.550719811e-09
-7.09302759e-09
7.899588504e-09
3.476722129e-09
-2.763552531e-09
-1.125807952e-09
4.821459327e-09
2.479561188e-10
-9.488542591e-10
1.025474579e-09
1.531681005e-09
-5.411310878e-10
-1.68995676e-09
1.977538893e-10
4.160208298e-10
-1.288003895e-10
-2.686447519e-10
1.02607272e-10
1.829021064e-10
-7.541141382e-11
-1.910582972e-10
6.17739629e-11
1.225862869e-10
-5.31129066e-11
-1.260850026e-10
4.968729041e-11
1.57390205e-10
-5.711048686e-11
-1.374400467e-10
7.739330324e-11
3.351188325e-10
-1.18675282e-10
-2.919886904e-10
2.057937784e-10
9.018631584e-10
-3.805490849e-10
-7.983024141e-10
6.76316595e-10
1.924743381e-09
-1.755761306e-09
1.447015145e-09
-1.085074295e-09
-1.837630756e-09
-2.907351647e-09
1.44044573e-08
5.191958924e-09
-1.235054641e-08
-4.329080243e-09
6.055219686e-09
1.81252296e-09
-7.183584539e-09
-1.844249741e-09
3.715257404e-09
3.818598441e-09
-6.396951477e-09
-7.227981928e-09
1.090916531e-08
9.102192037e-09
-8.899856575e-09
-8.02864649e-09
8.675643744e-09
5.698778938e-09
-4.698121949e-09
-3.629068437e-09
4.588765427e-09
2.263814883e-09
-2.443817016e-09
-1.515193569e-09
1.605882301e-09
1.238609871e-09
-2.175221793e-09
-1.421899583e-09
4.633858748e-09
2.497142774e-09
-5.114750249e-09
-4.010677405e-09
5.179068249e-09
3.401014847e-09
-2.924913865e-09
-1.890815985e-09
1.582696174e-09
9.715495764e-10
-8.554185145e-10
-5.33258945e-10
5.530430786e-10
2.148364853e-10
-3.074424183e-10
-1.000540364e-10
2.054900961e-09
-3.16057945e-10
-1.871708691e-09
5.078528133e-10
1.96249754e-10
-1.415978249e-10
-1.877315586e-10
5.474228716e-11
3.857320121e-10
-3.349789971e-11
-1.021902983e-09
1.391456931e-10
1.993853925e-10
-1.332220208e-10
-3.926111239e-10
8.852073734e-11
1.306897141e-10
-6.499508857e-11
-1.401377745e-10
7.205605872e-11
2.682976684e-10
-1.091062573e-10
-2.549076944e-10
1.963141256e-10
6.93331997e-10
-3.507211414e-10
-5.732220309e-10
5.776744962e-10
1.449958712e-09
-8.861427258e-10
-1.054724831e-09
1.282877426e-09
2.474837711e-09
-1.749722503e-09
-1.79022641e-09
2.293687556e-09
-2.630009135e-09
-2.945576583e-09
9.481174323e-09
6.328671064e-09
-7.415757647e-09
-7.642032351e-09
1.101284758e-08
5.438261382e-09
-9.617860935e-09
-3.118781892e-09
8.05390959e-09
1.536848516e-09
-8.115781748e-09
-4.201133795e-09
7.165486587e-09
7.723645335e-09
-5.705812596e-09
-7.63277106e-09
5.47351224e-09
5.351561264e-09
-2.999673057e-09
-3.135869734e-09
2.214397914e-09
1.711198546e-09
-1.062965387e-09
-9.482866784e-10
1.100816949e-09
5.983698129e-10
-4.275839432e-10
-4.931362868e-10
1.837670814e-09
5.004821823e-10
-1.079733291e-09
1.880901766e-10
5.686324726e-09
2.712856592e-10
-6.866266524e-09
-1.357954647e-09
1.535155898e-09
1.035512324e-09
-8.563614452e-10
-5.881888275e-10
5.097393469e-10
3.497113606e-10
-3.690284936e-10
-2.069877031e-10
2.034371097e-10
9.076575247e-11
-1.754656823e-10
-1.610175938e-11
1.061432229e-09
-1.548713521e-10
-4.107546747e-10
3.64430042e-10
1.668957197e-10
-1.701335373e-10
-1.207357148e-10
5.227928762e-11
2.489072829e-09
-3.602492083e-11
-4.676115405e-09
7.126056393e-10
7.380473371e-10
-6.42905061e-10
-1.206904279e-09
3.662300716e-10
1.706804644e-10
-1.775960344e-10
-2.233414292e-10
1.082758931e-10
2.508163085e-10
-1.301364097e-10
-2.597267642e-10
2.01053285e-10
4.60339919e-10
-2.882612941e-10
-3.785651486e-10
3.839204019e-10
7.213707739e-10
-4.958584532e-10
-4.971809444e-10
6.407399168e-10
1.165121242e-09
-8.410712752e-10
-7.394088526e-10
1.127837245e-09
1.880905025e-09
-1.611950237e-09
-1.227762064e-09
1.812746513e-09
-8.652317888e-10
-1.616895645e-09
4.448879612e-10
3.273102998e-10
-1.508896441e-09
3.984995642e-09
4.206185476e-09
1.282478966e-09
-7.955457908e-09
8.739075576e-09
4.410543975e-09
-8.76581901e-09
-1.154090274e-09
6.897226349e-09
1.480227165e-09
-4.718992895e-09
-3.980957398e-09
3.687148912e-09
4.706946794e-09
-2.094138289e-09
-3.451447409e-09
1.685944754e-09
2.112492706e-09
-1.079763371e-09
-1.207558567e-09
6.06799543e-10
6.418325417e-10
-4.648123865e-10
-3.02248656e-10
1.899018802e-10
1.396381344e-10
-1.393755263e-10
-6.858258128e-11
4.484682547e-10
1.547727125e-11
-2.270645606e-10
4.246499565e-10
5.687360928e-09
-1.884762995e-09
-3.034937741e-09
2.835134478e-09
6.046993845e-10
1.804067087e-12
-6.105166315e-10
-1.080596425e-10
3.206287354e-10
6.954318062e-11
-2.41429456e-10
-6.451534459e-11
1.826094622e-10
6.504587993e-11
-1.140709226e-10
-3.964275033e-11
1.377369296e-10
1.381821309e-12
-8.718720296e-11
-6.288873752e-13
1.956903073e-10
-2.143828112e-12
-4.622137849e-10
6.045826325e-11
6.36267796e-09
-9.794308871e-11
-6.667103144e-09
8.548143892e-10
1.741806237e-09
-1.13385379e-09
-2.319611952e-09
8.427393215e-10
2.887704466e-10
-4.399393678e-10
-3.529142026e-10
2.22961774e-10
2.836544045e-10
-1.936670537e-10
-3.200429255e-10
2.209869749e-10
3.327685427e-10
-2.533019187e-10
-3.13619926e-10
2.798885731e-10
3.65794097e-10
-3.062941952e-10
-2.955584875e-10
3.444626161e-10
4.893905965e-10
-4.092344013e-10
-3.511853445e-10
5.17771795e-10
7.508384059e-10
-7.082255363e-10
-5.047287116e-10
8.063033792e-10
6.927686939e-10
-7.125450883e-10
1.077999705e-09
-8.821477255e-10
5.229245447e-12
-5.491533478e-11
-7.217079802e-09
-6.619149146e-09
6.318552038e-09
7.487403803e-09
-4.446110876e-09
-6.182459355e-09
6.034950519e-09
4.241346452e-09
8.840270211e-09
1.475190035e-11
-7.479873488e-09
2.889676405e-09
2.642305002e-09
4.355750492e-10
-1.437344932e-09
-1.229204215e-09
1.063862556e-09
1.461700369e-09
-5.022720034e-10
-1.354699306e-09
8.335248648e-10
1.222148155e-09
-7.885741801e-10
-1.048233741e-09
4.798097291e-10
6.873982034e-10
-5.950091345e-10
-2.815645183e-10
1.247684965e-10
1.532023863e-10
-8.331945013e-11
-1.38728832e-10
2.794753124e-10
1.131973036e-10
-4.977324175e-10
2.227019654e-10
1.182384261e-09
-4.672598247e-10
-3.679364098e-10
6.618806212e-10
3.951356751e-10
-5.890538119e-11
-1.925072556e-10
-1.092378537e-10
1.524770066e-10
7.211991064e-11
-9.395423162e-11
-4.203424522e-11
6.370182254e-11
2.062217289e-11
-3.685901867e-11
-4.862677733e-12
8.534823375e-11
5.687696281e-12
-2.729945798e-10
-3.405015761e-11
9.060274046e-10
-1.724523178e-11
-1.544497034e-09
2.610291873e-10
5.852389183e-09
-2.716254057e-10
-4.836070375e-09
5.17044706e-10
2.950122057e-09
-9.053149655e-10
-3.575605399e-09
1.044094768e-09
4.20327902e-10
-7.035578509e-10
-5.444757143e-10
3.958409558e-10
3.645698214e-10
-2.961825599e-10
-4.163459147e-10
2.805888541e-10
3.104010774e-10
-2.806869372e-10
-3.181223177e-10
2.788321098e-10
2.617741876e-10
-2.753433737e-10
-2.513594155e-10
2.779044457e-10
2.80668396e-10
-2.97500819e-10
-2.554337271e-10
3.457658679e-10
4.178538829e-10
-4.360657094e-10
-3.526578013e-10
5.86577483e-10
8.212545851e-10
-9.537699925e-10
-6.360241021e-10
1.594192532e-09
1.403030294e-09
-1.325412158e-09
3.461217566e-09
-2.36925374e-09
1.248326707e-09
3.340696444e-09
-4.212538301e-09
1.005675184e-09
-4.262561372e-09
-3.413791754e-09
1.947871027e-09
6.295880069e-09
-6.74583824e-09
-8.971184497e-09
9.904204997e-09
1.023636889e-08
6.381268675e-09
-7.882647277e-09
-6.291203222e-11
3.829914085e-09
1.132324172e-09
5.674976767e-10
-1.7367558e-09
-9.347193906e-10
6.031617897e-10
1.002726544e-09
-1.000936715e-09
-1.069516863e-09
9.280886906e-10
1.291248552e-09
-9.564757987e-10
-1.874375295e-09
3.967597281e-10
3.263901857e-09
-7.25084735e-10
-4.683028167e-09
-3.553075781e-10
3.810004151e-09
1.849292519e-10
-1.604658973e-09
4.197762745e-10
4.186331943e-10
-3.592945788e-10
-2.71890928e-10
2.71901732e-10
1.941089696e-10
-2.125863052e-10
-1.359609234e-10
1.39142828e-10
9.146913939e-11
-1.068814405e-10
-5.681401296e-11
6.097170073e-11
3.270945025e-11
-6.465960317e-11
-2.084413673e-11
5.905767519e-11
2.146906096e-11
-3.762478264e-10
-2.297958289e-11
1.149152153e-09
1.637422644e-10
-3.963680241e-09
-6.132616141e-10
2.5040373e-09
2.297956032e-10
-4.10597984e-09
3.660072872e-10
8.685745885e-09
-3.104061506e-10
-6.498448466e-08
3.562008988e-10
3.939031736e-09
-5.342836338e-10
-3.760940989e-09
1.009821165e-09
8.682630604e-10
-1.092095495e-09
-1.605219418e-09
7.717987066e-10
4.790592935e-10
-5.156877446e-10
-5.622789259e-10
4.197872594e-10
3.380059404e-10
-3.801548776e-10
-3.77323478e-10
3.558682844e-10
2.62172915e-10
-3.385930843e-10
-3.040785457e-10
3.361551598e-10
2.70033929e-10
-3.595106179e-10
-3.388847506e-10
4.098389553e-10
3.433977175e-10
-4.856163623e-10
-3.894561128e-10
5.985951909e-10
5.697157143e-10
-7.806517373e-10
-5.594698641e-10
1.079301442e-09
1.251929398e-09
-1.553136317e-09
-1.221968129e-09
2.229620976e-09
-1.370490379e-09
-3.033718741e-09
-2.059347655e-08
-2.668195984e-08
2.303571068e-08
2.943469225e-09
-2.046664489e-08
-2.144164378e-08
9.90022633e-10
2.175512071e-08
-1.725786019e-08
-2.201225139e-08
-1.216891109e-08
1.975987722e-08
-4.774209033e-09
-1.260292629e-08
-7.165722517e-09
-8.305489279e-10
-2.410433035e-09
-9.836294272e-11
6.220697838e-09
4.285144175e-09
-2.081395553e-08
-3.582494549e-09
3.026007557e-09
3.150373972e-09
-1.22785653e-08
-2.12383786e-09
1.129816032e-09
1.777829558e-09
-1.398676882e-09
-1.453965792e-09
8.317981008e-10
1.076866e-09
-7.622503785e-10
-7.61655045e-10
4.607895792e-10
5.397342751e-10
-3.975892336e-10
-3.949902357e-10
2.914244101e-10
2.547248336e-10
-2.454792449e-10
-1.915004365e-10
1.830429327e-10
1.460995775e-10
-2.139903381e-10
-1.074327024e-10
9.371064729e-11
6.888585059e-11
-1.086975176e-10
-6.016183784e-11
2.016077398e-10
1.250926776e-10
-9.9859353e-10
-4.376547744e-10
2.554036977e-09
1.332712487e-09
-9.17978004e-09
-2.776385588e-09
9.003129047e-09
3.961307199e-09
-1.297351347e-08
-3.670188546e-09
6.461747023e-09
2.597530485e-09
-1.295621603e-08
-8.194142875e-09
2.884672094e-07
4.205766977e-08
-2.770361272e-07
9.970939875e-09
3.298730962e-09
-3.169086421e-09
-4.672083337e-09
8.378980501e-10
2.725138988e-09
-1.385518113e-09
-3.651032965e-09
1.481174603e-09
7.050419072e-10
-1.089804868e-09
-1.058507353e-09
8.046003162e-10
4.523408212e-10
-6.746649856e-10
-6.060776314e-10
6.117968899e-10
4.108373491e-10
-5.872931958e-10
-7.021441839e-10
6.399469536e-10
5.267293592e-10
-7.892513287e-10
-1.062558032e-09
9.539953098e-10
5.153132606e-10
-1.041420931e-09
-8.064166062e-10
1.061472534e-09
5.755845776e-10
-1.096988915e-09
-5.868050102e-10
1.228427707e-09
1.069551253e-09
-1.472468529e-09
-6.427188371e-10
1.929875861e-09
9.85078516e-10
-8.087332193e-10
2.452271318e-09
-2.218162271e-09
2.387428455e-08
-2.081018509e-08
-6.554566975e-08
6.569750288e-08
4.777247212e-08
-5.62106528e-08
-5.807899659e-08
5.861701268e-08
4.465121082e-08
-7.204701079e-08
-2.996334397e-08
5.413790429e-08
1.754851086e-08
-7.701128938e-08
-8.595876229e-09
4.488604506e-08
5.29512718e-09
-7.44927574e-08
-1.567474935e-09
4.700484621e-08
-1.58572359e-09
-7.550897321e-08
2.141844832e-09
3.458693177e-08
-1.882150862e-09
-6.161722602e-08
2.794235642e-09
2.97814771e-09
1.188222345e-09
-1.631931243e-08
-1.381953962e-09
6.629972049e-10
1.042277247e-09
-5.227476269e-10
-6.295611915e-10
3.25358411e-10
3.986789893e-10
-2.689944066e-10
-2.816177271e-10
2.459484916e-10
2.462711223e-10
-4.865689524e-10
-3.298146786e-10
6.003555245e-10
5.480043751e-10
-2.837786995e-09
-5.431301765e-10
1.928102449e-10
1.67235982e-10
-4.199570753e-10
-5.907813392e-10
3.852940699e-09
2.675189692e-09
-8.104445278e-09
-7.046236835e-09
1.556792097e-08
1.015221647e-08
-1.591134389e-08
-9.984514991e-09
1.237203818e-08
7.502498317e-09
-8.64204558e-09
-4.304655108e-09
3.581143166e-09
1.617971241e-09
-1.511243862e-09
-2.112124757e-10
3.491356369e-10
6.409682149e-12
-4.907295689e-11
8.935752349e-12
1.398678201e-09
-8.117690983e-11
-5.90482598e-10
3.260778684e-10
3.683079564e-09
-9.297278161e-10
-2.805547538e-09
1.749718755e-09
2.005420191e-09
-2.071804412e-09
-3.568617965e-09
1.836557694e-09
1.041389014e-09
-1.604879447e-09
-2.510980122e-09
1.678720664e-09
1.639589329e-09
-2.237166233e-09
-3.901071171e-09
3.220397897e-09
2.426350387e-09
-4.042370813e-09
-4.356919907e-09
4.095960027e-09
1.412893006e-09
-3.320828054e-09
-2.245880803e-09
2.249766706e-09
5.581473192e-10
-1.432790567e-09
-4.984557967e-10
9.707581562e-10
2.542565274e-10
-6.951605204e-10
-1.735047457e-10
6.229804729e-10
3.630648018e-10
-2.104651706e-10
8.557619011e-10
-6.702099217e-10
2.919889654e-08
3.185460617e-08
-2.909906774e-08
-3.329860601e-08
6.11812134e-08
3.117942751e-08
-5.949479588e-08
-2.605751245e-08
7.968024656e-08
1.700097942e-08
-8.006738852e-08
-5.86361688e-09
8.574444341e-08
-3.388459544e-09
-9.312464264e-08
9.514854198e-09
9.514826286e-08
-1.616236722e-08
-1.139034342e-07
2.355911571e-08
1.022484162e-07
-2.963506543e-08
-1.294530931e-07
3.622579047e-08
8.932339071e-08
-3.66855772e-08
-1.216719664e-07
3.472284711e-08
5.852259563e-08
-3.795921597e-08
-9.614192513e-08
1.338459605e-08
3.76269648e-10
3.610135882e-10
-2.861076746e-10
-4.290106741e-10
2.468048012e-10
3.411487918e-10
-3.602441914e-10
-6.024219119e-10
2.115530932e-09
2.382772873e-09
-6.395224246e-09
-6.509518919e-09
8.249314148e-09
8.542053162e-09
-1.270725902e-08
-5.350896134e-09
8.424844726e-10
1.03512643e-09
-1.410488262e-09
-2.823730689e-09
9.853504522e-09
6.891480836e-09
-8.453733417e-09
-9.265201341e-09
1.201200289e-08
8.386909771e-09
-7.55947598e-09
-5.93190887e-09
5.188432226e-09
3.431604173e-09
-2.981606291e-09
-1.572556782e-09
8.352452766e-10
5.001114975e-10
-5.38958713e-10
-6.706202583e-11
2.807703215e-11
1.895666215e-12
-1.59612003e-11
1.904549759e-12
2.865299247e-10
-2.386060593e-11
-1.423975819e-10
1.008560411e-10
1.684065392e-09
-3.2436608e-10
-8.7320432e-10
9.114346165e-10
4.3395143e-09
-1.997965727e-09
-3.596252474e-09
3.086893543e-09
4.450249625e-09
-4.222325471e-09
-4.061328333e-09
5.824515704e-09
5.569978224e-09
-7.605757407e-09
-4.957683671e-09
8.885006458e-09
5.262395874e-09
-9.018800404e-09
-4.991844394e-09
7.823094994e-09
2.763281721e-09
-5.754429245e-09
-2.962713916e-09
3.573229238e-09
6.056408414e-10
-1.898564387e-09
-7.057985857e-10
9.592394181e-10
2.542318735e-10
-7.163297497e-10
-2.391985445e-10
5.879401892e-10
1.999028909e-10
-5.217659106e-10
-1.755659379e-10
5.215306843e-10
2.715337124e-10
-2.039725307e-10
-6.052492455e-10
2.607067948e-09
2.726254974e-08
-2.275755121e-08
-4.42558118e-09
5.375767001e-08
7.63928355e-09
-4.481137471e-08
-8.303300019e-09
7.679677266e-08
4.71430708e-09
-7.006660882e-08
3.722919509e-09
9.728324475e-08
-1.464520397e-08
-9.778737868e-08
2.588758646e-08
1.301622639e-07
-3.857369373e-08
-1.433666682e-07
5.325338263e-08
1.578014212e-07
-6.420679796e-08
-1.857630497e-07
7.457029699e-08
1.577408417e-07
-8.316647375e-08
-1.940726842e-07
7.57190874e-08
1.211043493e-07
-7.407409746e-08
-1.430877369e-07
7.166288562e-08
3.510596061e-10
-3.496088718e-09
-1.454906686e-09
-3.953706566e-10
7.696483315e-10
1.170289097e-09
-1.124595574e-09
-4.715618607e-09
9.120884911e-09
1.117253871e-08
-6.396426486e-09
-1.51500476e-08
1.224002255e-08
1.348246738e-08
-6.865825129e-09
-7.332980861e-09
1.845035655e-09
1.896247132e-09
-1.50405523e-09
-2.409731399e-09
5.718700573e-09
4.162369956e-09
-3.186001924e-09
-4.180848621e-09
4.225744876e-09
3.136624923e-09
-2.139414187e-09
-2.032367722e-09
1.679208309e-09
1.178923694e-09
-9.037871771e-10
-5.869501878e-10
3.71744151e-10
2.222457472e-10
-2.811429957e-10
-5.5818768e-11
1.26998227e-11
1.187691999e-12
-1.273625616e-11
1.195162921e-12
8.312698675e-11
-9.788200606e-12
-6.39746992e-11
3.804574116e-11
4.420922277e-10
-1.06139275e-10
-2.415063485e-10
2.9341288e-10
2.453204156e-09
-8.333030983e-10
-1.462299882e-09
1.864010699e-09
3.558631281e-09
-2.853029324e-09
-2.836819228e-09
3.632986637e-09
4.586353354e-09
-4.529029333e-09
-4.009353485e-09
5.494783465e-09
5.080862193e-09
-6.186095852e-09
-4.791939052e-09
6.27765593e-09
3.248082164e-09
-5.590956675e-09
-3.234786926e-09
4.214045124e-09
9.167679665e-10
-2.717139892e-09
-1.407696426e-09
1.507600429e-09
1.543857587e-10
-8.971261084e-10
-9.865738695e-11
6.037336036e-10
1.364848781e-10
-4.960335951e-10
-3.067217089e-11
5.311809784e-10
1.543131962e-10
1.538223258e-11
-5.368469482e-10
1.094695465e-08
-1.326331474e-08
5.031020496e-09
-6.92758801e-09
1.835230356e-08
-1.4802884e-08
6.436273982e-09
3.426616006e-08
-5.019948119e-09
-2.385504994e-08
4.104066354e-09
5.937831177e-08
-6.705414218e-09
-4.599136881e-08
1.376195589e-08
9.378849428e-08
-2.535790806e-08
-8.48228678e-08
4.037750586e-08
1.518145733e-07
-5.801152302e-08
-1.546186205e-07
7.973908151e-08
2.123119324e-07
-9.889445703e-08
-2.367664781e-07
1.150892259e-07
2.289335093e-07
-1.321714192e-07
-2.607985805e-07
1.248657981e-07
1.649890651e-07
-1.170933477e-07
-1.862408149e-07
1.129718205e-07
5.297495157e-09
-5.206657051e-08
-2.2538549e-09
-5.639623883e-10
1.252476653e-09
2.521323773e-09
-3.638190035e-09
-3.269998974e-09
1.736230617e-09
2.749855462e-09
-2.569134912e-09
-1.722291124e-09
8.975619362e-10
1.354279357e-09
-4.808811496e-11
-1.199355735e-09
4.116867379e-10
4.837427309e-10
-1.860851295e-10
-8.313196495e-10
1.457487145e-09
1.1175313e-09
-5.214593934e-10
-1.063930276e-09
9.846248351e-10
7.971162722e-10
-4.426770147e-10
-5.581570866e-10
4.817653263e-10
3.777895293e-10
-3.157790698e-10
-2.707503461e-10
2.764197036e-10
1.806763968e-10
-3.588872665e-10
-8.739104563e-11
1.490137119e-11
1.779264636e-12
-1.954778483e-11
2.164220423e-12
6.314721907e-11
-1.103862625e-11
-7.403386361e-11
4.01693468e-11
1.527691399e-10
-7.39456953e-11
-1.137818042e-10
1.221287345e-10
7.964256048e-10
-2.703896162e-10
-4.093917577e-10
6.848023901e-10
1.969058193e-09
-1.34913817e-09
-1.19516867e-09
2.100559268e-09
3.197651e-09
-3.001336372e-09
-2.328069747e-09
4.087642602e-09
4.18935981e-09
-5.142973683e-09
-3.41475987e-09
5.803502289e-09
2.918591774e-09
-5.655001135e-09
-2.347102376e-09
4.818237957e-09
3.418662787e-09
-5.242871025e-09
-6.026318808e-09
5.077178083e-09
4.442727165e-10
-3.248654329e-09
-2.721737504e-09
1.242701951e-09
4.417467045e-11
-4.39221468e-10
-1.881902419e-11
2.455724013e-10
2.40751969e-11
-5.010950918e-12
1.084708194e-10
-1.624069643e-10
1.274006346e-08
-1.094788645e-08
7.151440898e-09
-8.601188748e-09
1.215585441e-08
-1.001949751e-08
9.319133072e-09
1.560087134e-08
-9.858960053e-09
-1.02839784e-08
1.111417408e-08
3.217069168e-08
-1.459698559e-08
-2.068303682e-08
2.171632667e-08
7.137174325e-08
-3.366782895e-08
-5.533510299e-08
5.12610642e-08
1.516557001e-07
-7.29446414e-08
-1.428244969e-07
1.005007071e-07
2.566682258e-07
-1.287957949e-07
-2.677820515e-07
1.521298829e-07
2.867287842e-07
-1.746207304e-07
-3.035827994e-07
1.621317804e-07
2.03361452e-07
-1.583052684e-07
-2.156485272e-07
1.465431211e-07
3.974484871e-09
2.627347542e-09
-4.54625469e-09
-1.513447474e-08
6.347640997e-09
1.876134968e-08
-5.320894155e-09
-1.67885111e-08
3.801061836e-09
1.051110474e-08
-3.064823937e-09
-3.616514463e-09
5.868154197e-11
1.602167631e-10
-6.060049776e-11
-1.288100724e-10
8.871157831e-11
1.64788872e-10
-5.760920942e-11
-1.919539834e-10
1.645552083e-10
1.980867748e-10
-1.058161788e-10
-1.842494162e-10
2.398177047e-10
1.78562021e-10
-1.469401933e-10
-1.994572605e-10
2.676070655e-10
1.964578382e-10
-1.787682076e-10
-3.170093312e-10
5.07752131e-10
3.906126644e-10
-6.525395347e-10
-3.283949673e-10
2.851592641e-11
7.282160419e-12
-5.288674901e-11
8.524135807e-12
9.997088709e-11
-2.364000806e-11
-1.556800597e-10
9.554029933e-11
8.882578575e-11
-1.043328571e-10
-5.143107874e-11
8.515086683e-11
1.941668953e-10
-8.98332232e-11
-7.57463397e-11
1.917026179e-10
6.385105481e-10
-4.423102236e-10
-3.003702541e-10
8.823047169e-10
1.5410198e-09
-1.567620256e-09
-9.23490265e-10
2.497045858e-09
2.582385166e-09
-3.519227801e-09
-1.834850599e-09
4.369975468e-09
1.704388609e-09
-4.673621733e-09
-1.179272121e-09
4.092038438e-09
4.667416256e-09
-4.321060844e-09
-2.039443001e-09
5.54570274e-09
5.45481212e-09
-7.320351987e-09
-3.432198837e-09
7.695169643e-09
2.679462707e-10
-4.234474282e-09
-1.190051304e-09
8.943386776e-10
5.352621911e-12
-5.412494425e-12
5.922088442e-11
-1.511100702e-10
8.804084411e-09
-6.689478042e-09
9.615684045e-09
-9.923934794e-09
8.077847967e-09
-6.294840757e-09
9.874629036e-09
7.580903127e-09
-9.698400513e-09
-6.508657357e-09
1.032740411e-08
1.41251451e-08
-1.288031973e-08
-1.30501475e-08
1.865400569e-08
4.045842901e-08
-2.953856258e-08
-3.147553307e-08
4.81850499e-08
1.277927462e-07
-7.512258139e-08
-1.080392392e-07
1.116367926e-07
2.679120938e-07
-1.498865433e-07
-2.60329182e-07
1.767855742e-07
3.114267119e-07
-1.918670762e-07
-3.101403625e-07
1.628600757e-07
2.268487846e-07
-1.66727944e-07
-1.395874262e-07
6.055378661e-09
8.616655914e-11
1.982118389e-10
-1.947280959e-12
-4.975411378e-10
2.735174206e-10
9.1167309e-10
-4.999171246e-12
-1.247490297e-09
1.72257947e-10
1.054225483e-09
5.222980696e-11
-4.280051149e-10
1.351474159e-11
4.788969145e-11
-1.136808071e-13
-6.003463789e-11
2.245634579e-11
7.02827671e-11
7.288416002e-12
-8.152503942e-11
3.87979111e-11
8.18497242e-11
-9.683595958e-13
-7.69064458e-11
5.168118182e-11
6.771980176e-11
-8.607164563e-12
-5.445261633e-11
3.332790571e-10
-3.313454463e-11
-3.281701768e-10
3.803881308e-10
8.531143061e-10
-8.788279327e-10
-8.476414014e-10
1.450621553e-09
-1.108918773e-10
-1.698075297e-09
-9.736874748e-11
8.788017095e-10
1.733187831e-10
-3.512465711e-10
-1.242222438e-10
1.639680345e-10
3.31296974e-11
-8.087196304e-11
2.041554453e-12
4.527142377e-11
2.56043824e-11
-3.403838728e-11
6.115830211e-13
5.017776623e-11
1.151085656e-10
-1.201519467e-10
-1.904228588e-11
3.042251599e-10
4.879786591e-10
-6.911079082e-10
-2.110789267e-10
1.326502181e-09
1.395889583e-09
-2.082542867e-09
-1.57231917e-09
2.493105463e-09
6.803400936e-10
-2.095691246e-09
-9.315895438e-11
1.601302303e-09
6.252083457e-10
-1.107385043e-09
-2.070794043e-11
9.474589552e-10
1.012715369e-09
-1.159465821e-09
-5.035256557e-11
1.949181758e-09
1.221702704e-09
-3.184917033e-09
-8.518571011e-11
2.658237852e-09
-9.001603083e-13
3.710356987e-11
1.167341003e-10
-7.098695345e-10
5.030226109e-09
-4.047741234e-09
1.204849944e-08
-1.162815467e-08
4.80816428e-09
-3.650640087e-09
1.08997184e-08
6.374153659e-09
-1.064288774e-08
-6.870304347e-09
1.200002042e-08
1.508500516e-08
-1.545358172e-08
-1.814575724e-08
2.101979111e-08
3.047100477e-08
-2.870945021e-08
-3.383311168e-08
3.937152893e-08
8.839950543e-08
-5.676984105e-08
-7.398342506e-08
9.385804733e-08
2.503834042e-07
-1.429716394e-07
-2.377502559e-07
1.731866702e-07
2.949509897e-07
-1.579349667e-07
-2.504815597e-07
1.715373602e-07
8.390956333e-08
-2.025385948e-07
-1.051379639e-07
-1.219047682e-11
-2.21959603e-12
4.730290602e-11
2.022162218e-11
-7.106896008e-11
-1.874889729e-11
9.654826765e-11
4.222987179e-11
-1.14482322e-10
-6.524643427e-11
1.115170907e-10
4.993309711e-11
-7.661973924e-11
-1.278901124e-11
4.620068048e-11
2.198735215e-11
-4.78061424e-11
-1.956148065e-11
4.675303339e-11
2.445667707e-11
-4.344644659e-11
-1.107749579e-11
3.609387972e-11
2.184456359e-11
-2.557636704e-11
-4.900918753e-12
1.525894527e-11
6.960759618e-12
-8.893562199e-12
1.874728667e-10
-8.349277407e-11
-1.858574444e-10
1.464390549e-10
3.784242068e-10
-2.453026373e-10
-1.61539331e-10
4.704068457e-10
7.336312144e-10
-9.82780442e-10
-3.435402316e-10
2.19939417e-09
-1.229189281e-10
-3.635452119e-09
-3.49639068e-10
3.835323379e-09
-1.651608218e-10
-2.717101141e-09
3.551554322e-10
1.570743014e-09
-7.038917208e-11
-8.667041977e-10
1.95626954e-10
5.363422772e-10
-7.697677691e-11
-4.876366778e-10
2.116722671e-10
7.042608908e-10
-6.657519095e-11
-1.191745506e-09
3.792696052e-10
1.856829878e-09
3.063793316e-10
-2.397207408e-09
1.103753252e-10
2.510407266e-09
1.76559866e-11
-2.349262364e-09
-3.933441235e-11
1.73645066e-09
-4.160324828e-11
-1.033771386e-09
4.933368565e-10
7.962278073e-10
-8.997821769e-11
-8.932159533e-10
5.788408143e-10
1.393080093e-09
-3.17969489e-10
-2.614698877e-09
1.383081106e-09
5.133884432e-09
-9.917085937e-10
2.070865904e-09
1.240145547e-08
-9.103639837e-09
4.243552284e-09
1.668177664e-08
-1.217441355e-08
2.437494785e-09
-9.754043128e-10
1.122663981e-08
7.782135858e-09
-1.2032604e-08
-8.674565879e-09
1.50873309e-08
2.136110662e-08
-2.078494176e-08
-2.458800915e-08
2.892308878e-08
3.835372108e-08
-3.865307422e-08
-4.260786613e-08
4.877616607e-08
6.554541824e-08
-5.861307995e-08
-6.038236453e-08
7.369708522e-08
2.17091652e-07
-1.136330713e-07
-1.882257121e-07
1.571135999e-07
2.140880447e-07
-1.921799514e-07
-1.917497832e-07
1.54466559e-07
1.942039112e-07
-1.550282592e-07
-1.349994242e-07
-1.290909996e-10
-4.558118097e-11
7.691402673e-10
2.188393405e-10
-1.603122223e-09
-5.658062671e-11
3.495031335e-09
4.794383655e-11
-8.541980997e-09
-4.931095588e-11
1.542479571e-08
-7.106017255e-09
-2.116099191e-08
-4.317221488e-11
2.413727109e-08
-6.638441879e-09
-2.395637884e-08
-5.056850909e-11
2.077486651e-08
-5.68868501e-09
-1.553778194e-08
-3.59901668e-11
9.808674283e-09
-5.407563817e-09
-4.886575224e-09
-2.091397944e-12
1.228740802e-09
-2.125957547e-09
4.46128869e-10
2.047171738e-10
-3.470807252e-10
-1.353400781e-10
2.736877488e-10
9.715872527e-11
-2.278281747e-10
-5.235040581e-11
2.200002314e-10
1.375220293e-10
-2.840534567e-10
-4.16163191e-11
4.974665006e-10
2.657201914e-10
-1.019412285e-09
-6.719736455e-11
2.091269261e-09
-2.435790124e-10
-3.666992771e-09
1.105423904e-10
4.667775577e-09
-3.467690548e-10
-4.228328044e-09
7.544262441e-10
3.14926027e-09
-4.627344704e-10
-2.582573593e-09
1.146113367e-09
2.909384373e-09
-8.448411654e-10
-3.794262944e-09
1.509175359e-09
4.132740847e-09
-4.270324302e-10
-2.532463105e-09
2.057992758e-10
6.445389536e-10
-6.2682267e-11
-2.026534046e-10
4.849223915e-11
3.267543703e-10
-9.41945029e-10
-8.799987368e-10
1.723220326e-09
1.776322248e-09
-1.819816182e-09
-3.442606616e-09
4.273307612e-09
5.94488829e-09
-3.240745855e-09
-7.551128025e-09
2.524036589e-09
4.923538184e-09
-7.467033238e-10
2.489605767e-11
1.387531053e-10
-1.043594746e-09
-2.4786151e-09
1.17998932e-09
-1.814606843e-09
3.85388586e-09
1.055802189e-08
-8.033745766e-09
-1.355889729e-08
1.526471897e-08
2.837687722e-08
-2.522017844e-08
-3.267601306e-08
3.681042781e-08
4.60235978e-08
-4.840902313e-08
-4.810381384e-08
5.833866525e-08
5.623701286e-08
-6.528004068e-08
-5.182820362e-08
6.943883182e-08
1.557927888e-07
-7.990559091e-08
-1.237347373e-07
1.145937745e-07
1.582163336e-07
-1.472180832e-07
-1.28559121e-07
1.051132129e-07
1.270591588e-07
-1.227022197e-07
-7.344257579e-08
9.954186624e-09
-9.211171337e-10
2.869210849e-08
-2.711116754e-09
-3.416011925e-08
2.218814094e-09
3.078197488e-08
-1.822148519e-09
-2.726354729e-08
2.761653622e-09
2.324794516e-08
-7.965199264e-10
-1.942421252e-08
2.118315889e-09
1.641168222e-08
1.530722131e-09
-1.477182028e-08
3.032681501e-09
1.443303462e-08
4.361204314e-11
-1.425167085e-08
7.108361629e-09
1.220036397e-08
-8.155094484e-09
-7.743417005e-09
3.720090903e-09
2.541393577e-09
-3.625730033e-09
4.712811698e-10
-9.437269898e-12
-4.82551275e-10
4.714620917e-10
3.021123938e-10
-7.464567735e-12
-2.356350552e-10