/*--------------------------------*- C++ -*----------------------------------*\
| =========                 |                                                 |
| \\      /  F ield         | OpenFOAM: The Open Source CFD Toolbox           |
|  \\    /   O peration     | Version:  2.1.x                                 |
|   \\  /    A nd           | Web:      www.OpenFOAM.org                      |
|    \\/     M anipulation  |                                                 |
\*---------------------------------------------------------------------------*/
FoamFile
{
    version     2.0;
    format      ascii;
    class       volVectorField;
    location    "2.2";
    object      Uf;
}
// * * * * * * * * * * * * * * * * * * * * * * * * * * * * * * * * * * * * * //

dimensions      [0 1 -1 0 0 0 0];

internalField   nonuniform List<vector> 
2828
(
(-1.148530303 0 -0.4141845732)
(-2.604225819 0 -0.6799682652)
(-0.8069299851 0 -0.02377251515)
(-0.5252392974 0 0.09633521588)
(-0.3067141082 0 0.06448108642)
(-0.2680959271 0 -0.1656625653)
(-0.2679648141 0 -0.1378962697)
(-0.2560447785 0 -0.1079391211)
(-0.3403100459 0 -0.1267270549)
(-1.511856193 0 -0.6283361203)
(-3.78013693 0 -1.097810736)
(-1.136561111 0 0.09478451353)
(-0.4449917384 0 0.0584836542)
(-0.3728972251 0 0.08357707375)
(-0.4671181121 0 0.1242989874)
(-0.5026948933 0 0.1643398164)
(-0.4817297063 0 0.1929263574)
(-0.2822028032 0 -0.2500683915)
(-0.2761439957 0 -0.216555017)
(-0.4234246661 0 -0.2692877226)
(-0.6278814113 0 -0.3015062296)
(-0.2622011635 0 -0.1258538001)
(-0.2995485142 0 -0.1202020008)
(-2.035356115 0 -1.07223564)
(-4.060231048 0 -1.435246141)
(-2.03976516 0 0.3482619739)
(-0.429081899 0 0.03911563451)
(-0.385443475 0 0.08688824466)
(-0.5215029408 0 0.1393591986)
(-0.5776449647 0 0.2007650933)
(-0.5030480234 0 0.2216996067)
(-0.4239044803 0 0.2244697759)
(-0.3950950068 0 0.2444082074)
(-0.3613938407 0 -0.2638807291)
(-0.3251152013 0 -0.315484577)
(-0.6351510375 0 -0.4825768816)
(-1.135742401 0 -0.6583310988)
(-1.271105432 0 -0.5502157985)
(-0.2823880416 0 -0.158838066)
(-0.5423465576 0 -0.3243648451)
(-1.722474961 0 -1.146524639)
(-2.960239568 0 -1.486584733)
(-2.291000435 0 0.5930066852)
(-0.5138290048 0 0.06371262653)
(-0.4021301347 0 0.07931236371)
(-0.6383489832 0 0.1773757549)
(-0.6928247565 0 0.2625916215)
(-0.5455211306 0 0.2693868595)
(-0.4192351772 0 0.2525878739)
(-0.4210618368 0 0.2946759958)
(-0.4621432879 0 0.3552181309)
(-0.5198082995 0 0.4347502423)
(-0.4950460984 0 -0.2314068089)
(-0.4216478708 0 -0.2434386614)
(-0.6503520239 0 -0.6338542077)
(-1.158255254 0 -0.9369471095)
(-1.474495562 0 -0.9046317313)
(-1.418018029 0 -0.6096049301)
(-0.4368050947 0 -0.2020898083)
(-0.6602535025 0 -0.4402779615)
(-1.152277691 0 -0.8359623915)
(-1.324109047 0 -0.7623811122)
(-1.427421425 0 -0.4514261962)
(-0.6125541634 0 0.1957076473)
(-0.4771832319 0 0.08822829686)
(-0.8479912669 0 0.2533584031)
(-0.8243252619 0 0.3517261351)
(-0.5875645691 0 0.3332681582)
(-0.4299417773 0 0.2991269509)
(-0.4758570615 0 0.3636236336)
(-0.5477107507 0 0.4492807275)
(-0.5929392315 0 0.5244789663)
(-0.6109612191 0 0.5571548053)
(-0.3694883625 0 -0.2815200471)
(-0.41126849 0 -0.2266747955)
(-0.4663017274 0 -0.2595505341)
(-0.9466217442 0 -1.089104276)
(-1.236841905 0 -1.2338153)
(-1.366998483 0 -1.029748941)
(-1.40671994 0 -0.6508269082)
(-0.5867666614 0 0.03830171518)
(-0.637635154 0 -0.1365607473)
(-0.906216051 0 -0.764057802)
(-1.208933758 0 -0.8600845183)
(-1.538959948 0 -0.5919827436)
(-0.755838296 0 0.354964369)
(-0.688873872 0 0.1278703345)
(-1.22661164 0 0.2642424546)
(-0.8784154148 0 0.4329089496)
(-0.5992071214 0 0.4008709856)
(-0.4957556184 0 0.3690032715)
(-0.540424748 0 0.4210936314)
(-0.569536905 0 0.4846141581)
(-0.5894846655 0 0.5543608331)
(-0.6484841783 0 0.5767967994)
(-0.7982130482 0 0.8113324435)
(-0.2300505616 0 -0.2032354111)
(-0.2601960316 0 -0.257335384)
(-0.31499108 0 -0.1898840225)
(-0.4642519004 0 -0.3567048953)
(-0.8498357262 0 -1.237272221)
(-0.952573193 0 -1.295847428)
(-1.12131894 0 -1.250543993)
(-1.632530637 0 -1.100446622)
(-0.7285661209 0 0.6775457985)
(-0.7331354802 0 0.5099539269)
(-0.3893561013 0 -0.195653535)
(-0.3623892017 0 -0.1369339118)
(-0.3618220558 0 -0.3878715299)
(-0.4652808166 0 -0.05786858462)
(-1.141899858 0 0.2134090667)
(-1.609911783 0 0.1461421909)
(-0.9233965162 0 0.4076519755)
(-0.5523090708 0 0.4476298235)
(-0.6149876524 0 0.442981393)
(-0.6218762723 0 0.4911645418)
(-0.5961251125 0 0.5420920094)
(-0.5599850578 0 0.5857501584)
(-0.5966794787 0 0.5773721791)
(-0.4979756701 0 0.928719941)
(0.2271072453 0 -0.444418112)
(0.7454567348 0 0.8732463928)
(0.5347001759 0 0.5985604887)
(-0.2129774824 0 -0.01278567588)
(-0.3908770135 0 -0.3261084861)
(-0.5248637761 0 -0.9163654747)
(-0.5525014485 0 -0.9703865262)
(-0.4726076904 0 -1.011016263)
(-0.7918338743 0 -1.482939051)
(-0.7089735703 0 0.6487456843)
(-0.6537748192 0 0.5168681725)
(-0.4050264181 0 -0.2160617054)
(-0.4096320865 0 -0.1726532706)
(-0.3906965324 0 -0.09140058087)
(-0.5903787374 0 -0.1183228001)
(-1.652591014 0 0.3354490737)
(-1.653406242 0 0.1079836638)
(-0.9985340626 0 0.2949845999)
(-0.4374894313 0 0.4258099301)
(-0.7011787789 0 0.5024981073)
(-0.7012690408 0 0.5955249949)
(-0.6239858248 0 0.6512421948)
(-0.5323803282 0 0.6659812249)
(-0.4661352808 0 0.6729235592)
(-0.449932897 0 0.718074826)
(-0.4511427545 0 0.75276396)
(-0.1528402553 0 -0.2741740433)
(0.4590282059 0 0.568489847)
(0.07664758544 0 0.1911116098)
(-0.07109944357 0 0.1023284798)
(-0.3323291712 0 -0.4061195577)
(-0.2685377362 0 -0.444167359)
(-0.3043181054 0 -0.425898786)
(-0.1049955413 0 -0.5012003063)
(0.3452056057 0 -0.5825926556)
(-0.4175181298 0 -0.3040416339)
(-0.4207933718 0 -0.2944397925)
(-0.445107873 0 -0.2805836603)
(-0.4972375868 0 -0.24404318)
(-0.5571647893 0 -0.1607566617)
(-0.8669232323 0 -0.2634848886)
(-1.284152664 0 0.1188086013)
(-2.388104137 0 0.008468066947)
(-1.075184789 0 0.2396871742)
(-0.4283708347 0 0.3339225208)
(-0.6640631408 0 0.5303364141)
(-0.7367631801 0 0.7508974066)
(-0.591628004 0 0.7914206181)
(-0.4491851144 0 0.7364570355)
(-0.3726208328 0 0.6963768048)
(-0.3485573818 0 0.6944172423)
(-0.3537926013 0 0.6838123323)
(-0.3331212455 0 0.5843130447)
(-0.1233638043 0 -0.4174629668)
(0.03276600485 0 -0.3338299732)
(0.122721197 0 -0.3541889961)
(0.1748162998 0 -0.1768162197)
(0.2373896814 0 0.2423429269)
(-0.4981973301 0 -0.327988385)
(-0.4042066987 0 -0.3519810387)
(-0.2826258116 0 -0.4663625157)
(-0.3220581523 0 -0.4145745377)
(-0.3531737695 0 -0.3644444813)
(-0.3886121349 0 -0.3410995281)
(-0.4318977523 0 -0.3444156698)
(-0.5002743281 0 -0.3601755174)
(-0.5934119909 0 -0.3483604454)
(-1.031383253 0 -0.5012996177)
(-1.440411937 0 -0.6131452716)
(-1.287060323 0 -0.4404084674)
(-7.17949309 0 -0.4562761604)
(-1.157771643 0 0.2721544807)
(-0.6500401427 0 0.3101375516)
(-0.5222890746 0 0.5105783578)
(-0.5997002294 0 0.9058754229)
(-0.3584101037 0 0.7349498761)
(-0.2595581481 0 0.5689417399)
(-0.2537075849 0 0.5720465764)
(-0.2661801919 0 0.6091961928)
(-0.2830071695 0 0.5627683286)
(-0.2979867593 0 0.4864598192)
(-0.2124804901 0 -0.4790818712)
(-0.280122689 0 -0.3578981321)
(-0.3550825658 0 -0.2157773386)
(-0.5276741078 0 -0.08866481152)
(-0.7433482402 0 -0.0467768135)
(-0.7812028546 0 0.05453625011)
(-0.7764488882 0 0.05919571763)
(-0.3867801328 0 -0.321059068)
(-0.2842580121 0 -0.4362914137)
(-0.3133638494 0 -0.3850632536)
(-0.3727314118 0 -0.3774887269)
(-0.5051202919 0 -0.4620575819)
(-0.5483126757 0 -0.448925396)
(-1.092438151 0 -0.7624823638)
(-1.731507155 0 -1.095500575)
(-1.862612823 0 -1.037490124)
(-1.52303326 0 -0.669868776)
(-0.8006737043 0 0.01295440242)
(-1.122716835 0 0.2836278328)
(-0.8348703417 0 0.3819320856)
(-0.4558452723 0 0.3766973149)
(-0.232299892 0 0.5072017083)
(-0.2197797697 0 0.4468725978)
(-0.2409198437 0 0.4028866593)
(-0.228431998 0 0.3611357215)
(-0.2017759705 0 0.3808121485)
(-0.3354344827 0 0.6206457692)
(-0.4683811758 0 0.9675751643)
(-0.3378361653 0 -0.2933638254)
(-0.4658636373 0 -0.1944458527)
(-0.572036864 0 -0.07995118434)
(-0.6942030033 0 0.05109650617)
(-0.8111540915 0 0.1807343088)
(-0.8480682733 0 0.2834907654)
(-0.8802356525 0 0.2915622603)
(-0.9450516784 0 0.4308542522)
(-0.261656701 0 -0.4598628069)
(-0.2977188568 0 -0.4095854397)
(-0.6410967605 0 -0.7185661031)
(-1.049519766 0 -0.9975682726)
(-0.6481429757 0 -0.5663133734)
(-1.482907821 0 -1.129814008)
(-1.947637858 0 -1.377516914)
(-1.967946548 0 -1.254996818)
(-1.831392196 0 -0.9786537725)
(-2.273146954 0 0.004772283256)
(-1.247767287 0 0.3960944062)
(-0.8980310803 0 0.4868235871)
(-0.5619332067 0 0.405374582)
(-0.3014045469 0 0.3624319047)
(-0.2552267309 0 0.407768529)
(-0.253565437 0 0.3911102509)
(-0.2455536463 0 0.3305156878)
(-0.1888916131 0 0.2683544518)
(-0.4810594749 0 1.088787172)
(-0.5040491675 0 1.369981722)
(-0.4511572905 0 1.324234294)
(-0.3862277201 0 -0.04381956706)
(-0.5463280746 0 -0.08957045415)
(-0.6264824646 0 -0.01554025945)
(-0.6704928529 0 0.148085546)
(-0.7672487103 0 0.2935354912)
(-0.8423491371 0 0.3695061173)
(-0.9016371953 0 0.4330342756)
(-0.9597490382 0 0.5862198808)
(-0.2994284942 0 -0.4526881983)
(-0.4122283879 0 -0.6269779274)
(-0.8983027624 0 -1.172730911)
(-1.079240813 0 -1.188500353)
(-0.7689815754 0 -0.5063425434)
(-1.41500155 0 -1.184457145)
(-1.756344639 0 -1.372701145)
(-1.822124504 0 -1.273314)
(-2.093160302 0 -1.210511011)
(-2.776291786 0 0.005239972881)
(-1.469882005 0 0.6350774625)
(-0.9147073965 0 0.6219496367)
(-0.6347662829 0 0.5178812567)
(-0.3944094866 0 0.3813349105)
(-0.327192717 0 0.3634082906)
(-0.3015533114 0 0.3637191187)
(-0.2588091376 0 0.3446546697)
(-0.1919714584 0 0.3054079577)
(-0.02448398266 0 0.7006993509)
(0.01401337867 0 0.7564115154)
(-0.07197934684 0 0.4645374381)
(-0.3650733284 0 0.06666488092)
(-0.3706135302 0 0.1246979719)
(-0.4514551175 0 0.04793092692)
(-0.5445946941 0 0.09009365015)
(-0.6203682537 0 0.2393570131)
(-0.736630605 0 0.363123426)
(-0.826215026 0 0.4190746684)
(-0.8726389317 0 0.4923176421)
(-0.9245840781 0 0.6026075425)
(-0.6495680318 0 0.1783198781)
(-0.359387477 0 -0.8726092302)
(-0.4117010865 0 -0.9718101802)
(-0.1816628552 0 -0.8117737773)
(-0.5501902437 0 -0.6902527416)
(-1.025294444 0 -0.9784383245)
(-1.483682807 0 -1.319189021)
(-1.840925935 0 -1.454590254)
(-2.260083033 0 -1.438137195)
(-3.04992995 0 0.01298592579)
(-1.568729127 0 1.005114138)
(-0.9724295535 0 0.8529412)
(-0.5537577994 0 0.5431226739)
(-0.3553791627 0 0.4033565493)
(-0.2952199905 0 0.3886275379)
(-0.2710284086 0 0.3884319559)
(-0.2310151518 0 0.3631008695)
(-0.4521710323 0 0.5118419295)
(-0.1721254949 0 0.4338758649)
(-0.009442060038 0 0.3176671031)
(-0.02037679949 0 0.2587839177)
(-0.282719994 0 0.1406341883)
(-0.30462541 0 0.2188165094)
(-0.3758507269 0 0.2636565943)
(-0.4766797551 0 0.296585618)
(-0.5946153787 0 0.4074432898)
(-0.7216162617 0 0.4662216679)
(-0.822760718 0 0.4565896521)
(-0.8259154214 0 0.4873587511)
(-0.9167975873 0 0.6282905393)
(-0.4071226885 0 -1.194875959)
(-0.4812302759 0 -1.412197997)
(-0.4951688807 0 -1.371603526)
(-0.3959477094 0 -0.9262300617)
(-0.5210836632 0 -0.9552595718)
(-0.6095816695 0 -0.769903175)
(-0.7201676707 0 -0.7983439472)
(-0.9997224632 0 -1.289335824)
(-0.9736288414 0 -1.245952136)
(-1.255197182 0 0.07540964554)
(-1.230347457 0 1.265300722)
(-0.9563624252 0 1.121037249)
(-0.3863589631 0 0.4737656817)
(-0.2516688361 0 0.3791826341)
(-0.2382159102 0 0.4076562039)
(-0.2278862624 0 0.4065087081)
(-0.1982818743 0 0.3778210844)
(-0.8933331283 0 0.8726317716)
(-0.7980695648 0 1.01954273)
(-0.1995160015 0 0.4784095761)
(-0.02570456448 0 0.3049123518)
(-0.1967693291 0 0.2013425442)
(-0.2192840818 0 0.2623149679)
(-0.3241724973 0 0.3924511531)
(-0.5744181755 0 0.6486638118)
(-0.7238265859 0 0.8053424179)
(-0.7596886637 0 0.6793070238)
(-0.8130068094 0 0.5135438326)
(-0.7515515266 0 0.3921235528)
(-0.7287353693 0 0.6294357889)
(-0.2544078009 0 -0.8866960507)
(-0.1428521455 0 -0.9255085797)
(0.07087965841 0 -1.052188866)
(-0.3209002984 0 -1.421607515)
(-0.4063448639 0 -1.372383647)
(-0.5210180334 0 -1.069338047)
(-0.6539186208 0 -0.7429993473)
(-0.1969711594 0 0.1218122012)
(-0.4686245095 0 0.6452966455)
(0.1506128455 0 0.4266335338)
(-0.3408517578 0 0.3446779801)
(-0.2963131928 0 0.4263829269)
(-0.2015755102 0 0.4239408078)
(-0.138770458 0 0.4351229789)
(-0.1413381702 0 0.4600076139)
(-0.1650676291 0 0.4246133694)
(-0.1462836318 0 0.1985454937)
(-0.8112961744 0 1.092754804)
(-0.7135066714 0 1.546673861)
(-0.3721162177 0 1.103073027)
(0.009266695152 0 0.3098034977)
(-0.1399248772 0 0.3165886916)
(-0.150885412 0 0.3449125144)
(-0.315334858 0 0.4955089048)
(-0.6842434774 0 0.8293853986)
(-0.9683124425 0 1.139558164)
(-0.9843922083 0 1.100445084)
(-0.8520069508 0 0.5807450346)
(-0.6525676474 0 0.1605878195)
(-0.5224229021 0 0.6711448858)
(0.8422617056 0 -2.310770344)
(1.266358285 0 -3.162577459)
(1.669782259 0 -3.853922134)
(2.080243926 0 -4.351892293)
(2.653188919 0 -4.310748253)
(0.9082130254 0 -1.505583173)
(0.5988600727 0 -0.6389719279)
(-0.8470409769 0 0.5918246846)
(-0.5904325811 0 0.7066073811)
(-0.3639829803 0 0.8189747219)
(-0.08939101531 0 0.8449660277)
(0.2382429297 0 0.8365623522)
(0.2729317212 0 0.8059283453)
(0.1786203334 0 0.7178860526)
(0.09386925046 0 0.6776899777)
(-0.02036213093 0 0.5472467254)
(-0.04746557514 0 0.3539217341)
(0.8940022736 0 1.411862871)
(0.7205726952 0 1.955254483)
(0.5310047962 0 2.189953912)
(0.3626050478 0 2.041517283)
(-0.1184580517 0 0.479882436)
(-0.0895475408 0 0.4785750339)
(-0.4684070872 0 0.7231494361)
(-0.872220171 0 1.052162377)
(-1.077978385 0 1.273891174)
(-1.216118987 0 1.462902158)
(-0.899576921 0 0.6485656471)
(-0.5572204762 0 0.4774931899)
(-0.5634358945 0 0.6066467876)
(0.7751186167 0 -1.367170515)
(0.1860820647 0 -0.8966994259)
(-0.1872171352 0 -0.7575074452)
(-0.2205001634 0 -0.6788742107)
(-0.2056708162 0 -0.5813844568)
(-0.2010324114 0 -0.4684085302)
(-0.2083328036 0 -0.2604783532)
(-0.6827616972 0 0.9366027535)
(-0.4332205109 0 1.095715586)
(-0.2598341714 0 1.03053706)
(-0.1454335119 0 1.032461873)
(0.005833415644 0 1.015342191)
(0.2050259875 0 0.8776766399)
(0.2957253602 0 0.7815734014)
(0.2249661868 0 0.6906654127)
(0.09153149095 0 0.3186147806)
(0.07036538269 0 0.1416992169)
(1.225263165 0 1.168709904)
(1.059160075 0 1.426913078)
(0.585558877 0 1.100087538)
(0.05209479131 0 0.1640106385)
(-0.3498465472 0 0.5760491967)
(-0.8498197962 0 1.035929371)
(-1.083204852 0 1.304425804)
(-1.211548111 0 1.462094136)
(-1.296885477 0 1.616285446)
(-0.8515352839 0 0.7138716481)
(-0.4226831113 0 0.4304823141)
(-0.2599981085 0 0.5780406651)
(0.09968787852 0 -1.16813982)
(0.03580804747 0 -0.734216514)
(0.05179939536 0 -0.5809853592)
(0.04411983897 0 -0.4425936065)
(-0.02053833245 0 -0.3766907045)
(-0.1656988577 0 -0.2955908288)
(-0.1844470186 0 -0.0812907333)
(0.3710254212 0 0.1331868155)
(0.3284528025 0 0.6342083974)
(0.2165488009 0 0.9165429004)
(0.1840758152 0 0.9633522229)
(0.2240009363 0 1.029391075)
(0.3141811767 0 1.040398819)
(0.3572499814 0 0.8840060758)
(0.2343599707 0 0.5503608368)
(0.08258127328 0 0.1316016297)
(0.09120737212 0 0.1146653881)
(0.9405287785 0 0.7878216863)
(0.5635041738 0 0.6238455278)
(0.07608116096 0 0.1081681154)
(0.05722019189 0 0.1025372663)
(-0.6465940682 0 0.8235250672)
(-1.050499457 0 1.326678672)
(-1.271847104 0 1.598481353)
(-1.347068143 0 1.689270812)
(-1.355961093 0 1.720387247)
(-0.848838804 0 0.9423382224)
(-0.1705044913 0 0.1192681087)
(-0.1330983244 0 0.2708921797)
(-0.4583446106 0 -0.1792220037)
(-0.2032213304 0 -0.4418615111)
(-0.2391403597 0 -0.3853494377)
(-0.2162851684 0 -0.3633855667)
(-0.2464561233 0 -0.3642642469)
(-0.2652228906 0 -0.3524885042)
(-0.1200530773 0 -0.2681083565)
(0.2295845335 0 0.1439084446)
(0.4091269769 0 0.2353721354)
(0.4367503519 0 0.5256639555)
(0.445040696 0 0.6552625833)
(-0.06884089968 0 0.413308186)
(0.0253857631 0 0.6126140474)
(0.2059015075 0 0.6370562654)
(0.2961302154 0 0.464455673)
(0.4392163267 0 0.4560357978)
(0.1754308517 0 0.1974247837)
(0.1557978051 0 0.1569353515)
(0.08481758523 0 0.09857417887)
(0.07222998052 0 0.09478792676)
(0.05640024195 0 0.09676504428)
(-0.5342755201 0 0.6019808046)
(-1.415320322 0 1.861412802)
(-1.449648873 0 1.91942044)
(-1.41420946 0 1.858962961)
(-1.323635112 0 1.710777475)
(-1.152635295 0 1.237201981)
(0.1681688601 0 0.1892153662)
(0.1812479287 0 0.3513154068)
(-0.1581408724 0 0.3191557144)
(-0.4209881983 0 -0.1525266291)
(-0.3604427381 0 -0.4215993698)
(-0.2555329752 0 -0.3498988005)
(-0.3404273694 0 -0.2954457789)
(-0.4070086648 0 -0.3137365737)
(-0.2014222951 0 -0.3403419906)
(-0.0866606369 0 -0.2891491664)
(0.3003313356 0 -0.2012363915)
(0.2632019454 0 -0.1459953991)
(0.1611866997 0 0.2942941406)
(-0.2357762038 0 0.175636178)
(-0.1392060442 0 0.2953510783)
(0.05066157299 0 0.4463393062)
(0.1603687987 0 0.4924974319)
(0.4485794861 0 0.4491719225)
(0.321063811 0 0.3015844022)
(0.1510402067 0 0.1620116141)
(0.09241978193 0 0.1077027498)
(0.07161086412 0 0.09974803106)
(-1.482020968 0 2.115955072)
(-1.419410666 0 2.011451814)
(-1.282845764 0 1.744219765)
(-1.059685132 0 1.353988829)
(-0.8809992918 0 0.8971081416)
(0.1810669072 0 -0.1049482186)
(0.2751841293 0 0.3781130632)
(0.2204125681 0 0.5166751199)
(-0.3103466281 0 -0.08375404889)
(-0.3648287442 0 -0.3911471443)
(-0.2804721064 0 -0.3586344249)
(-0.3672441425 0 -0.3044227898)
(-0.4493338951 0 -0.3345026286)
(-0.2717276987 0 -0.4639020887)
(-0.04415680045 0 -0.4436959486)
(0.03621565256 0 -0.3887139887)
(-0.1344466713 0 -0.4746226441)
(-0.171969717 0 -1.027041495)
(-0.4192368208 0 -0.3160138793)
(-0.3455128482 0 -0.06718812175)
(-0.186233928 0 0.5956218119)
(-0.0305673798 0 0.7252818098)
(0.1526200929 0 0.6750106569)
(0.3356179834 0 0.4098215816)
(0.2142933075 0 0.2032640314)
(0.1158009245 0 0.1632922464)
(0.07596030574 0 0.1913990088)
(0.8309356326 0 -0.2229747943)
(-0.9548648885 0 1.066787403)
(-0.8651204072 0 0.9843594546)
(-0.6805409058 0 0.7673268115)
(-0.4506028052 0 0.3603672328)
(-0.3582448853 0 -0.02488316616)
(0.3976221456 0 0.3994155174)
(0.1427624077 0 0.1177467905)
(-0.2496819054 0 -0.1257055937)
(-0.4118335276 0 -0.2888709338)
(-0.3949647172 0 -0.2816512342)
(-0.4864760876 0 -0.2897888542)
(-0.5691547768 0 -0.3601876685)
(-0.5839359867 0 -0.355296598)
(-0.5140826386 0 -0.3464678853)
(-0.3537057975 0 -0.3696649854)
(-0.09612900753 0 -0.3288541359)
(-0.02685612546 0 -0.3122102163)
(-0.4842842542 0 -0.4270851859)
(-0.4381924722 0 -0.3895174772)
(0.7309553604 0 0.3768192004)
(0.4575863086 0 0.4769399169)
(0.424639961 0 0.4460350083)
(0.4189312664 0 0.3014349407)
(0.2628087976 0 0.2151217034)
(0.175060747 0 0.1898185006)
(-0.9980964146 0 1.183793229)
(-0.7708272513 0 0.910473392)
(-0.4967032785 0 0.5038391587)
(-0.09812927225 0 -0.2124980531)
(-0.06709853544 0 -0.2082842573)
(-0.03922289246 0 -0.1245882581)
(0.09469041118 0 -0.05961882911)
(-0.1771685893 0 -0.1574296298)
(-0.2656024479 0 -0.1966979195)
(-0.3144042628 0 -0.2296717627)
(-0.4269985847 0 -0.2231276546)
(-0.5726060728 0 -0.3760991264)
(-0.5981822835 0 -0.3853781668)
(-0.577040595 0 -0.3636325354)
(-0.4436883757 0 -0.3662236696)
(-0.1706873053 0 -0.4439563448)
(-0.01655690783 0 -0.3356019243)
(-0.5611609219 0 -0.4499105779)
(-0.5370156109 0 -0.4758900346)
(-0.3991606723 0 -0.3786790642)
(0.5862341585 0 0.2317254195)
(0.3440087198 0 0.3723812041)
(0.4186843105 0 0.2665278332)
(0.2847231372 0 0.2069340416)
(0.1977553343 0 0.1712169944)
(-0.3755243435 0 -0.3626773982)
(-0.5921134274 0 0.6599138284)
(-0.3702510237 0 0.3883305406)
(0.03342572166 0 -0.3821418881)
(-0.03771631168 0 -0.4055958936)
(-0.09208580273 0 -0.4215964821)
(-0.04103046317 0 -0.5110960425)
(0.07096139687 0 -0.5090478815)
(-0.01026813584 0 -0.3250938174)
(-0.2485343133 0 -0.2713626675)
(-0.3027896433 0 -0.2076576376)
(-0.5722024379 0 -0.3913227117)
(-0.6150866099 0 -0.4002176157)
(-0.6269223421 0 -0.3926927076)
(-0.5815233188 0 -0.3624126249)
(-0.4840768215 0 -0.3550901001)
(-0.5224672703 0 -0.455900962)
(-0.6065817182 0 -0.5336948859)
(-0.6588917877 0 -0.571395203)
(-0.6286873685 0 -0.5422495624)
(-0.2385088457 0 -0.3022844478)
(0.8179732863 0 0.5269125382)
(0.7974743098 0 0.6398963273)
(0.7130393815 0 0.6128948618)
(0.2077924863 0 -0.2229279094)
(0.1747155272 0 -0.2910850758)
(0.09953399699 0 -0.3057030645)
(0.06205409397 0 -0.2772920513)
(0.09836616697 0 -0.3001752709)
(0.1168052256 0 -0.355827951)
(0.1437679188 0 -0.454856791)
(0.1070913303 0 -0.4348279854)
(-0.2531240293 0 -0.304550745)
(-0.4488567351 0 -0.31688447)
(-0.5426354321 0 -0.3700510006)
(-0.6181235279 0 -0.4090691699)
(-0.6606395817 0 -0.4208008416)
(-0.6534759821 0 -0.4017966605)
(-0.5546862346 0 -0.357027534)
(-0.463955472 0 -0.4033041013)
(-0.6034710837 0 -0.5396474278)
(-0.7256944872 0 -0.6397579487)
(-0.7936470768 0 -0.6845591033)
(-0.7450679274 0 -0.6278152176)
(0.857432824 0 0.5531695866)
(0.8355069762 0 0.6214866182)
(0.1851606157 0 -0.2563408336)
(0.1555196765 0 -0.3004409772)
(0.1362646605 0 -0.2708769887)
(0.1602216185 0 -0.2472556864)
(0.2299410757 0 -0.2633952842)
(0.2127845628 0 -0.3454313051)
(0.1985426259 0 -0.4026879087)
(-0.02973723632 0 -0.2561391368)
(-0.3554529275 0 -0.2613111979)
(-0.4918801404 0 -0.338668526)
(-0.6033202689 0 -0.406361354)
(-0.6765154801 0 -0.4409447686)
(-0.7057990123 0 -0.4398720757)
(-0.6662780919 0 -0.4088451958)
(-0.4819692867 0 -0.327363969)
(-0.5338233999 0 -0.4810081354)
(-0.7369012267 0 -0.6609345994)
(-0.880261762 0 -0.7757219426)
(-0.9550385693 0 -0.8060953065)
(0.712215898 0 0.4617739619)
(0.2475526242 0 -0.2901718564)
(0.1857663407 0 -0.1999779748)
(0.1190620176 0 -0.1113729973)
(0.2522983666 0 0.04096673598)
(-0.1169677914 0 -0.2884373422)
(-0.1486143772 0 -0.1912405192)
(-0.2386072373 0 -0.1968076995)
(-0.4047039827 0 -0.2815868173)
(-0.5619183906 0 -0.3823807305)
(-0.6736755504 0 -0.4487603139)
(-0.7353954802 0 -0.4688188595)
(-0.7402548277 0 -0.4596851934)
(-0.6882292576 0 -0.4116589889)
(-0.3241240198 0 -0.261037016)
(-0.6170519995 0 -0.5564356436)
(-0.8959168333 0 -0.8174682668)
(-1.012827735 0 -0.8905579769)
(0.2199886984 0 -0.1294959006)
(-0.2202992486 0 0.0632389568)
(0.3952023762 0 0.06248049235)
(-0.06767180219 0 -0.2343054272)
(-0.0719773054 0 -0.1742912394)
(-0.1154109649 0 -0.1691779034)
(-0.2594339223 0 -0.2022060767)
(-0.4691791788 0 -0.3208972084)
(-0.6453298054 0 -0.4363137095)
(-0.7451504824 0 -0.4874733901)
(-0.7782077682 0 -0.4904415193)
(-0.7992797358 0 -0.4865020109)
(0.7109040331 0 0.5782939697)
(-0.1751800606 0 -0.0412784943)
(-0.04485733119 0 -0.1701885964)
(-0.04144019139 0 -0.1526290599)
(-0.05295160578 0 -0.1433537023)
(-0.07787543235 0 -0.161620892)
(-0.2421985414 0 -0.2118975186)
(-0.5396491125 0 -0.3713467567)
(-0.7269150953 0 -0.4965756068)
(-0.7918815032 0 -0.497555649)
(-0.830754989 0 -0.5297305355)
(-0.2603989961 0 -0.116919781)
(-0.2566827139 0 -0.1029680297)
(-0.2526626642 0 -0.09158937884)
(-0.3031287513 0 -0.1034870102)
(-0.7011258393 0 -0.265417923)
(-0.8205249458 0 -0.301316732)
(-1.202783115 0 -0.4591985634)
(-2.137986637 0 -0.7274588485)
(-1.597483064 0 -0.5096715663)
(-3.298828692 0 -0.8998633743)
(-4.31620018 0 -0.8124784243)
(-3.672933958 0 -0.6955974841)
(-0.8574886263 0 0.1034392621)
(-0.7225666837 0 -0.07911095963)
(-0.8427706315 0 -0.1761359837)
(-0.4929695563 0 0.08068238514)
(-0.3511565189 0 0.06610330963)
(-0.3078995025 0 0.05964767693)
(-0.3302880366 0 0.07380788634)
(-0.4153918593 0 0.1061596332)
(-0.4533306919 0 0.1213283209)
(-0.4800474159 0 0.1391393261)
(-0.4923761855 0 0.1569927012)
(-0.2718897543 0 -0.2034154896)
(-0.2709356616 0 -0.187951503)
(-0.2730768237 0 -0.1760428774)
(-0.3008886055 0 -0.1768252765)
(-0.2690450823 0 -0.1518869999)
(-0.3144426035 0 -0.1669910445)
(-0.2772447673 0 -0.1365257468)
(-0.2600658574 0 -0.1209127211)
(-0.5364460237 0 0.1805690856)
(-0.5190432878 0 0.1960086878)
(-0.4971598781 0 0.1823836824)
(-0.4879263348 0 0.2045573289)
(-0.4523250767 0 0.2050279902)
(-0.4569080958 0 0.2016746051)
(-0.4324906302 0 0.2154107647)
(-0.4118041429 0 0.2261058751)
(-0.2824237732 0 -0.3138811253)
(-0.2906638041 0 -0.2710744564)
(-0.3006578771 0 -0.260525782)
(-0.2798676215 0 -0.23157406)
(-0.4042549717 0 0.2654518602)
(-0.4083803743 0 0.2850623843)
(-0.3938204544 0 0.2629914107)
(-0.4226183586 0 0.3113861687)
(-0.4939129854 0 -0.2422297114)
(-0.5261082578 0 -0.06321952646)
(-0.5165561418 0 -0.01866840914)
(-0.3971221752 0 -0.2753843033)
(-0.3378083037 0 -0.3973163966)
(-0.29867387 0 -0.3689114227)
(-0.517614461 0 0.4130730253)
(-0.5453269914 0 0.4516798566)
(-0.4920446514 0 0.3954823699)
(-0.5581392121 0 0.4804741269)
(-0.5720761763 0 0.5117156276)
(-0.396751263 0 -0.2796259116)
(-0.4380421093 0 -0.2376973959)
(-0.4608664013 0 -0.2299741181)
(-0.6375143311 0 0.5769731567)
(-0.7104369086 0 0.6335308576)
(-0.2092834154 0 -0.2457416262)
(-0.2648630292 0 -0.2613271543)
(-0.3245697743 0 -0.2749268103)
(-0.7362657641 0 0.9113630804)
(-0.6831889145 0 1.023875702)
(0.7966863627 0 0.9288967022)
(0.7335816587 0 0.9062694745)
(0.597810652 0 0.788632347)
(-0.2391028353 0 -0.26504371)
(-0.309970689 0 0.85787876)
(-0.2992581684 0 0.9058712383)
(-0.4787240032 0 1.032770984)
(-0.325214133 0 0.8962997218)
(-0.1413344431 0 -0.216525045)
(0.6707583128 0 0.7051371357)
(0.7888592781 0 0.8823343956)
(-0.389632908 0 0.7167738833)
(-0.3887457802 0 0.6897038601)
(-0.4364102522 0 0.7372726579)
(-0.0804481465 0 -0.4092878422)
(-0.1241202123 0 -0.29465349)
(-0.2945571255 0 0.4944489306)
(-0.2273116281 0 -0.4870282594)
(-0.2598955813 0 -0.4748534475)
(-0.02988743382 0 -0.4053366919)
(-0.3711336189 0 0.6848324851)
(-0.4169621717 0 0.8039021084)
(-0.3388012964 0 0.5776742882)
(-0.2276735064 0 -0.4618501077)
(-0.2726612929 0 -0.4591000229)
(-0.3300754681 0 -0.3648318947)
(-0.2431383034 0 -0.4293127631)
(-0.5485412664 0 1.282904815)
(-0.5087590259 0 1.256466214)
(-0.4811628374 0 1.040972037)
(-0.4934654163 0 1.260767046)
(-0.2989815045 0 -0.1903189759)
(-0.2817198918 0 -0.3240348283)
(-0.3637075138 0 1.250358354)
(-0.3520401499 0 -0.0008781850326)
(-0.3038431239 0 0.01909378563)
(-0.2909132548 0 -0.06334760094)
(-0.09688419738 0 0.483493152)
(-0.09546849803 0 0.4831632642)
(-0.3297900346 0 0.1094887389)
(-0.317772048 0 0.1624015548)
(-0.3298177951 0 0.1212626467)
(-0.02806089368 0 0.2558568615)
(-0.02727861724 0 0.2533974521)
(-0.02016733267 0 0.2434563418)
(-0.2372257715 0 0.1670824928)
(-0.2460651629 0 0.2014456324)
(-0.2850734849 0 0.184164605)
(-0.004153671942 0 0.4189325535)
(-0.004454405102 0 0.4232977133)
(-0.02444942486 0 0.3044840695)
(-0.1642267089 0 0.2482546862)
(-0.1720102293 0 0.2643610404)
(-0.2061592863 0 0.2259659051)
(0.1779790215 0 2.813013442)
(0.1810712254 0 2.804485364)
(0.01060664318 0 0.2986108103)
(-0.141835992 0 0.4066675338)
(-0.1333671896 0 0.402187205)
(-0.1441042392 0 0.3241203377)
(0.2818837236 0 1.023355953)
(0.09264167999 0 0.4391713702)
(0.275364886 0 1.743045367)
(0.03945500728 0 0.4155166255)
(-0.08933516541 0 0.4799811498)
(0.05074956078 0 0.1087486333)
(0.03430836479 0 0.1320804677)
(-0.3151528171 0 -0.2212176767)
(0.07509622963 0 0.2982562601)
(0.05648351986 0 0.1004282867)
(-0.6261672137 0 -0.1921141822)
(-0.6047385449 0 0.8203072973)
(-0.9702192289 0 1.26143388)
(-0.8504693689 0 1.081799019)
(0.07054659178 0 0.09413970032)
(0.06069806924 0 0.0967171835)
(0.06023473864 0 0.09405323505)
(-0.65509703 0 0.421617518)
(-1.482982289 0 1.981843353)
(-1.313545188 0 1.702532633)
(0.06577435628 0 0.1257813659)
(0.06386892768 0 0.1220373661)
(0.06738175101 0 0.1027061599)
(-1.435188753 0 2.138526548)
(-1.493501595 0 2.114075364)
(0.1035965646 0 0.2258477068)
(-0.2499279186 0 -0.5722925431)
(-1.032705432 0 1.147807511)
(-0.9561460159 0 1.057189844)
(0.1878669146 0 0.1785162122)
(0.1682175918 0 0.1844321055)
(0.1508853413 0 0.2012085222)
(-1.035366368 0 1.192880293)
(0.5657237845 0 -0.07183446894)
(-0.5667605264 0 0.5964104548)
(-0.9019331214 0 1.070938805)
(0.6751062472 0 0.6065109866)
(0.4640914512 0 0.4070375757)
(0.2280845626 0 0.1789400241)
(-0.6371347214 0 0.7078376719)
(-0.6331637605 0 0.6655707807)
(0.7639272111 0 0.6312292827)
(0.6420200732 0 0.5534793518)
(0.1619759393 0 -0.2311827975)
(0.1596402919 0 -0.2437317924)
(0.8527731832 0 0.6156688023)
(0.8288943425 0 0.6436152798)
(0.2006200644 0 -0.2842047922)
(0.1786236226 0 -0.2838061021)
(0.2016680137 0 -0.2958951126)
(0.2127371132 0 -0.2982920934)
(0.1509074117 0 -0.2945760008)
(-1.003517552 0 -0.8539676012)
(-0.37058859 0 -2.539216475)
(0.2276141158 0 0.2726512451)
(-30.13242464 0 -30.56329945)
(0.782913912 0 0.5320841151)
(0.2461123562 0 -0.2933319393)
(0.2588549523 0 -0.2606122004)
(0.2457025787 0 -0.2528235324)
(0.2159807527 0 -0.2520856945)
(-0.1082905581 0 0.06088402583)
(0.435296712 0 -0.6276890978)
(-0.9679021253 0 -0.8794383647)
(0.08660228915 0 -0.1740683532)
(-0.3034864211 0 0.2666267072)
(-0.248998373 0 0.2157663823)
(0.07912405601 0 -0.1492551352)
(0.237279448 0 0.008447752801)
(-0.103398844 0 -0.2303213221)
(-0.1196714847 0 -0.1784569768)
(-0.8269884739 0 -0.5092896896)
(0.0911502338 0 0.3107055552)
(0.6368807888 0 0.5001382241)
(0.6001587827 0 0.3508634296)
(0.3671618564 0 0.2849295369)
(0.3492215883 0 0.0664503844)
(-0.207249611 0 0.09790110342)
(-0.07540609572 0 -0.2082728688)
(-0.04255223721 0 -0.1605641893)
(-0.02704723359 0 -0.1454132221)
(-0.04226406379 0 -0.1474241791)
(-0.02707254726 0 -0.1334770791)
(-0.02040524904 0 -0.1236453611)
(-0.06145245845 0 -0.1486227032)
(-0.009330531996 0 -0.1186003889)
(0.005624614054 0 -0.118611081)
(-0.1223850256 0 -0.179672606)
(0.02360402814 0 -0.1190521893)
(0.03786597398 0 -0.1136588172)
(-0.4010411956 0 -0.2780703187)
(0.05405691014 0 -0.09754765746)
(0.1331309418 0 -0.1148199349)
(-0.6541535464 0 -0.4497569326)
(0.09605651727 0 -0.5006208105)
(-0.7776170411 0 -0.4995550724)
(-0.8093425057 0 -0.5379333224)
(-0.2587561581 0 -0.1158274887)
(-0.2568096411 0 -0.102283618)
(-0.2553054303 0 -0.09730980985)
(-0.3083183947 0 -0.1177161595)
(-0.7673244368 0 -0.3460684482)
(-0.6950549465 0 -0.2821880259)
(-1.877899529 0 -0.8739844522)