/*--------------------------------*- C++ -*----------------------------------*\
| =========                 |                                                 |
| \\      /  F ield         | OpenFOAM: The Open Source CFD Toolbox           |
|  \\    /   O peration     | Version:  2.1.x                                 |
|   \\  /    A nd           | Web:      www.OpenFOAM.org                      |
|    \\/     M anipulation  |                                                 |
\*---------------------------------------------------------------------------*/
FoamFile
{
    version     2.0;
    format      ascii;
    class       scalarField;
    location    "0.6";
    object      age;
}
// * * * * * * * * * * * * * * * * * * * * * * * * * * * * * * * * * * * * * //


29
(
0.005613627284
0.005438555589
0.005220168472
0.005032458094
0.004838146628
0.004613273322
0.004431763255
0.004212513392
0.004020512274
0.00382913866
0.003618555659
0.003429957942
0.003211343746
0.003014129754
0.002812679868
0.002638106958
0.002410025429
0.00221109988
0.002014664173
0.001836614231
0.001620372903
0.001406273762
0.001240951505
0.001024324154
0.0008162047368
0.0006147893635
0.0004128418598
0.0002305818573
2.12029294e-05
)


// ************************************************************************* //
