/*--------------------------------*- C++ -*----------------------------------*\
| =========                 |                                                 |
| \\      /  F ield         | OpenFOAM: The Open Source CFD Toolbox           |
|  \\    /   O peration     | Version:  2.1.x                                 |
|   \\  /    A nd           | Web:      www.OpenFOAM.org                      |
|    \\/     M anipulation  |                                                 |
\*---------------------------------------------------------------------------*/
FoamFile
{
    version     2.0;
    format      ascii;
    class       scalarField;
    location    "0.6";
    object      d;
}
// * * * * * * * * * * * * * * * * * * * * * * * * * * * * * * * * * * * * * //


29
(
0.0005002378604
0.0005131202854
0.0007276597786
0.0005002200828
0.00067215205
0.0006054551129
0.0005048032347
0.0005400551961
0.0005198532298
0.0006052429576
0.0007203611749
0.0005115954711
0.0005576149038
0.0008030377377
0.0005044450801
0.0005155192849
0.0005058809063
0.0005020844254
0.0005817663948
0.0005014059333
0.0006639442006
0.0006291494326
0.0005001602463
0.000675339398
0.0005002005101
0.0006632978357
0.0005247881256
0.0005018715758
0.0005034014066
)


// ************************************************************************* //
