/*--------------------------------*- C++ -*----------------------------------*\
| =========                 |                                                 |
| \\      /  F ield         | OpenFOAM: The Open Source CFD Toolbox           |
|  \\    /   O peration     | Version:  2.1.x                                 |
|   \\  /    A nd           | Web:      www.OpenFOAM.org                      |
|    \\/     M anipulation  |                                                 |
\*---------------------------------------------------------------------------*/
FoamFile
{
    version     2.0;
    format      ascii;
    class       scalarField;
    location    "0.6";
    object      mass0;
}
// * * * * * * * * * * * * * * * * * * * * * * * * * * * * * * * * * * * * * //


29
(
6.554329897e-08
7.073855349e-08
2.017361518e-07
6.553631132e-08
1.59001494e-07
1.162102607e-07
6.735425082e-08
8.247324242e-08
7.355985456e-08
1.160881411e-07
1.957264483e-07
7.01097948e-08
9.078241697e-08
2.711480508e-07
6.72109903e-08
7.173537472e-08
6.778654299e-08
6.627181606e-08
1.030966409e-07
6.600350959e-08
1.532474892e-07
1.303947332e-07
6.551279571e-08
1.612741945e-07
6.552861866e-08
1.528003549e-07
7.56746849e-08
6.618756759e-08
6.679468352e-08
)


// ************************************************************************* //
