/*--------------------------------*- C++ -*----------------------------------*\
| =========                 |                                                 |
| \\      /  F ield         | OpenFOAM: The Open Source CFD Toolbox           |
|  \\    /   O peration     | Version:  2.1.x                                 |
|   \\  /    A nd           | Web:      www.OpenFOAM.org                      |
|    \\/     M anipulation  |                                                 |
\*---------------------------------------------------------------------------*/
FoamFile
{
    version     2.0;
    format      ascii;
    class       scalarField;
    location    "0.6";
    object      nParticle;
}
// * * * * * * * * * * * * * * * * * * * * * * * * * * * * * * * * * * * * * //


29
(
2.235575688
1.688431243
0.751830328
1.995750866
0.849874272
1.348313295
1.73296307
1.768269672
2.032594394
1.144869084
0.7029459065
1.969482372
1.549814571
0.5428679633
1.837075211
1.921325155
2.340714127
1.766657831
1.457514067
1.983065356
0.9798277151
1.057308508
1.896917376
0.9437754062
2.000866908
0.9475484343
1.860577688
1.974513276
1.984123635
)


// ************************************************************************* //
