/*--------------------------------*- C++ -*----------------------------------*\
| =========                 |                                                 |
| \\      /  F ield         | OpenFOAM: The Open Source CFD Toolbox           |
|  \\    /   O peration     | Version:  2.1.x                                 |
|   \\  /    A nd           | Web:      www.OpenFOAM.org                      |
|    \\/     M anipulation  |                                                 |
\*---------------------------------------------------------------------------*/
FoamFile
{
    version     2.0;
    format      ascii;
    class       Cloud<basicReactingParcel>;
    location    "0.6";
    object      positions;
}
// * * * * * * * * * * * * * * * * * * * * * * * * * * * * * * * * * * * * * //

29
(
(0.02042987985 0.0016469592 0.009349628375) 5835
(0.013432154 0.0004540893002 0.00802124648) 57503
(0.01229480925 0.0011535735 0.01744094124) 110702
(0.003786091187 0.003839589222 0.013197324) 87497
(0.01159297237 0.001549845899 0.01180896748) 81872
(0.01984777961 0.004390326158 0.01136403342) 78026
(0.01120785211 0.003989806498 0.0178541005) 116152
(0.0191082185 0.006137267282 0.01662096055) 107846
(0.007740021112 0.006298860869 0.007300712659) 54904
(0.01925770926 0.006790556912 0.01174281749) 8308
(0.01161830674 0.005193201464 0.01294571343) 87954
(0.01193196706 0.006245553636 0.009420028532) 6057
(0.01041268036 0.006747005534 0.01098643474) 78729
(0.008407442375 0.008060980724 0.01390305028) 93810
(0.01473835637 0.007915636371 0.01305365784) 88766
(0.009956814827 0.008615021463 0.01360105264) 93816
(0.01389717521 0.009288065981 0.0102793699) 74447
(0.01271975993 0.01044328304 0.01607459587) 12157
(0.01213424132 0.01011708227 0.0137948729) 94233
(0.01264685143 0.01087202745 0.01052863672) 74835
(0.0117049967 0.01142156732 0.01391636002) 94624
(0.01311678377 0.01248788798 0.01474650149) 99728
(0.01336347277 0.01293269855 0.01058897952) 75428
(0.0120484414 0.01297375779 0.01277518918) 9289
(0.01173941686 0.01378484315 0.01320454189) 90310
(0.0123717904 0.01429132719 0.0131811446) 90507
(0.01320975473 0.01499738734 0.01234745486) 85616
(0.01262243401 0.01534227332 0.01267505348) 9380
(0.01250468731 0.01593656501 0.01250019565) 90707
)


// ************************************************************************* //
