/*--------------------------------*- C++ -*----------------------------------*\
| =========                 |                                                 |
| \\      /  F ield         | OpenFOAM: The Open Source CFD Toolbox           |
|  \\    /   O peration     | Version:  2.1.x                                 |
|   \\  /    A nd           | Web:      www.OpenFOAM.org                      |
|    \\/     M anipulation  |                                                 |
\*---------------------------------------------------------------------------*/
FoamFile
{
    version     2.0;
    format      ascii;
    class       vectorField;
    location    "0.6";
    object      U;
}
// * * * * * * * * * * * * * * * * * * * * * * * * * * * * * * * * * * * * * //


29
(
(1.389397075 -2.542278906 -0.5519777355)
(0.1687647874 -2.841194414 -0.810870181)
(-0.03895810779 -2.844412474 0.938101373)
(-1.705992746 -2.405402169 0.1365207862)
(-0.1857414057 -2.982864423 -0.1415098576)
(1.576419529 -2.513430343 -0.2437144278)
(-0.2878186045 -2.696943786 1.192595478)
(1.551350388 -2.336067502 0.9674398254)
(-1.170688774 -2.405687966 -1.278734101)
(1.749758492 -2.403409764 -0.196055567)
(-0.2421308616 -2.985587568 0.1224019532)
(-0.1639879023 -2.832928817 -0.8891703702)
(-0.6447268024 -2.873862183 -0.4675067851)
(-1.351723821 -2.637032688 0.4634110636)
(0.7892683745 -2.864500609 0.1952256719)
(-0.9568156704 -2.79144713 0.4142460537)
(0.5756607447 -2.777337861 -0.9149386363)
(0.09874079344 -2.507632527 1.606109133)
(-0.1806765415 -2.916014869 0.6396380165)
(0.07952191164 -2.785968546 -1.067518238)
(-0.4890641495 -2.824578201 0.871305696)
(0.4372773806 -2.496964834 1.592688285)
(0.6932261701 -2.468728235 -1.534234144)
(-0.4399593306 -2.953647631 0.2681203464)
(-0.929551331 -2.711376517 0.861060177)
(-0.2082834984 -2.778958679 1.106556576)
(1.717128854 -2.427791033 -0.369056595)
(0.5305835128 -2.85158578 0.7586167428)
(0.2210459279 -2.991666414 0.009226315219)
)


// ************************************************************************* //
