/*--------------------------------*- C++ -*----------------------------------*\
| =========                 |                                                 |
| \\      /  F ield         | OpenFOAM: The Open Source CFD Toolbox           |
|  \\    /   O peration     | Version:  2.1.x                                 |
|   \\  /    A nd           | Web:      www.OpenFOAM.org                      |
|    \\/     M anipulation  |                                                 |
\*---------------------------------------------------------------------------*/
FoamFile
{
    version     2.0;
    format      ascii;
    class       scalarField;
    location    "0.5";
    object      age;
}
// * * * * * * * * * * * * * * * * * * * * * * * * * * * * * * * * * * * * * //


30
(
0.006015563819
0.005823833879
0.005436841311
0.005215279702
0.005013826942
0.004826346152
0.004640995726
0.004411629512
0.004227831427
0.004016172486
0.003831152714
0.003614366102
0.003424222044
0.003233020808
0.003015704975
0.002825942067
0.002623639174
0.002410383426
0.002228058492
0.002013709706
0.001820466241
0.001631136766
0.001415004216
0.001218040826
0.001012153209
0.0008177372271
0.0006168083551
0.000407482302
0.0002062564738
1.955915049e-05
)


// ************************************************************************* //
