/*--------------------------------*- C++ -*----------------------------------*\
| =========                 |                                                 |
| \\      /  F ield         | OpenFOAM: The Open Source CFD Toolbox           |
|  \\    /   O peration     | Version:  2.1.x                                 |
|   \\  /    A nd           | Web:      www.OpenFOAM.org                      |
|    \\/     M anipulation  |                                                 |
\*---------------------------------------------------------------------------*/
FoamFile
{
    version     2.0;
    format      ascii;
    class       scalarField;
    location    "0.5";
    object      d;
}
// * * * * * * * * * * * * * * * * * * * * * * * * * * * * * * * * * * * * * //


30
(
0.000501526637
0.0006069515703
0.0005736441667
0.0005034677728
0.001157890243
0.0005005306943
0.0005362030111
0.0006231245386
0.0006840329535
0.0005334540689
0.0005322831107
0.0005000315567
0.0005221350121
0.0005448457413
0.0005928648209
0.0005936603258
0.0006004888166
0.000607993462
0.0005074224345
0.0005103995806
0.0005028882362
0.000867646186
0.0005266388165
0.0005073193091
0.0005037002763
0.0005285835478
0.000506633753
0.0005040849338
0.0005000460955
0.0005310286997
)


// ************************************************************************* //
