/*--------------------------------*- C++ -*----------------------------------*\
| =========                 |                                                 |
| \\      /  F ield         | OpenFOAM: The Open Source CFD Toolbox           |
|  \\    /   O peration     | Version:  2.1.x                                 |
|   \\  /    A nd           | Web:      www.OpenFOAM.org                      |
|    \\/     M anipulation  |                                                 |
\*---------------------------------------------------------------------------*/
FoamFile
{
    version     2.0;
    format      ascii;
    class       scalarField;
    location    "0.5";
    object      mass0;
}
// * * * * * * * * * * * * * * * * * * * * * * * * * * * * * * * * * * * * * //


30
(
6.605118823e-08
1.170740764e-07
9.883855041e-08
6.682110474e-08
8.128320243e-07
6.565847138e-08
8.072096918e-08
1.266844133e-07
1.675828978e-07
7.948583091e-08
7.896355297e-08
6.546224004e-08
7.453273714e-08
8.468749836e-08
1.091102789e-07
1.095500804e-07
1.133739801e-07
1.176780193e-07
6.840811386e-08
6.961928342e-08
6.659061898e-08
3.420003956e-07
7.647812304e-08
6.83664138e-08
6.691372229e-08
7.732849308e-08
6.808963128e-08
6.70671381e-08
6.546795028e-08
7.840659653e-08
)


// ************************************************************************* //
