/*--------------------------------*- C++ -*----------------------------------*\
| =========                 |                                                 |
| \\      /  F ield         | OpenFOAM: The Open Source CFD Toolbox           |
|  \\    /   O peration     | Version:  2.1.x                                 |
|   \\  /    A nd           | Web:      www.OpenFOAM.org                      |
|    \\/     M anipulation  |                                                 |
\*---------------------------------------------------------------------------*/
FoamFile
{
    version     2.0;
    format      ascii;
    class       scalarField;
    location    "0.5";
    object      nParticle;
}
// * * * * * * * * * * * * * * * * * * * * * * * * * * * * * * * * * * * * * //


30
(
1.996000963
1.179563203
1.38179101
2.310408041
0.1546024964
2.155479842
1.630901592
1.109093743
0.8034320471
1.899302607
1.680812972
2.350525875
1.771719045
1.503177432
1.434434974
1.203068161
1.237928478
1.059446807
2.026059716
2.18285423
2.010684032
0.3872586944
1.919090122
1.983214536
2.010321959
1.856847948
2.033618077
2.135109818
2.134652712
1.604153342
)


// ************************************************************************* //
