/*--------------------------------*- C++ -*----------------------------------*\
| =========                 |                                                 |
| \\      /  F ield         | OpenFOAM: The Open Source CFD Toolbox           |
|  \\    /   O peration     | Version:  2.1.x                                 |
|   \\  /    A nd           | Web:      www.OpenFOAM.org                      |
|    \\/     M anipulation  |                                                 |
\*---------------------------------------------------------------------------*/
FoamFile
{
    version     2.0;
    format      ascii;
    class       Cloud<basicReactingParcel>;
    location    "0.5";
    object      positions;
}
// * * * * * * * * * * * * * * * * * * * * * * * * * * * * * * * * * * * * * //

30
(
(0.02302400426 0.001596665381 0.01136881921) 77074
(0.004386115964 0.001547751486 0.007251063953) 53420
(0.01578573925 0.0009730705162 0.007314786531) 53330
(0.01889580607 0.002611877437 0.007931415775) 58454
(0.02155899633 0.004103398472 0.01439450798) 97442
(0.013120197 0.003869799546 0.004817899039) 42109
(0.01246883976 0.002143146657 0.01233920216) 82079
(0.01388097195 0.00310860115 0.01000007581) 72681
(0.01144713581 0.003376655107 0.01281863153) 87362
(0.008876078989 0.004629645615 0.0137057371) 92633
(0.01226604837 0.005060030447 0.009147149384) 68355
(0.008344616025 0.007559270001 0.007240077895) 55275
(0.01350741196 0.006657940254 0.008458498019) 5376
(0.01182393099 0.006388218148 0.01169630197) 83448
(0.01278188977 0.006976288184 0.01235168162) 83653
(0.01587728146 0.008272920685 0.01316376097) 88973
(0.01725435445 0.009808759478 0.01334097059) 94271
(0.009470542812 0.009922153586 0.01494216433) 99111
(0.01268512547 0.00933784981 0.0123800596) 84243
(0.01076398969 0.01098814507 0.009645929843) 70109
(0.01168356099 0.01130334671 0.009865630611) 70122
(0.01261269641 0.0111173217 0.01284097459) 9230
(0.01407432004 0.01254400805 0.01062179315) 75235
(0.01227554068 0.01315239136 0.01476758692) 99917
(0.01263305084 0.01298017459 0.01225611394) 85223
(0.01392761846 0.01406147858 0.01295675945) 90327
(0.01250740909 0.0141822829 0.01283861659) 90315
(0.01211953411 0.01498793495 0.01306879654) 90509
(0.01256368721 0.01541168985 0.01231970052) 85809
(0.01248359472 0.01594970481 0.01252538204) 90701
)


// ************************************************************************* //
