/*--------------------------------*- C++ -*----------------------------------*\
| =========                 |                                                 |
| \\      /  F ield         | OpenFOAM: The Open Source CFD Toolbox           |
|  \\    /   O peration     | Version:  2.1.x                                 |
|   \\  /    A nd           | Web:      www.OpenFOAM.org                      |
|    \\/     M anipulation  |                                                 |
\*---------------------------------------------------------------------------*/
FoamFile
{
    version     2.0;
    format      ascii;
    class       vectorField;
    location    "0.5";
    object      U;
}
// * * * * * * * * * * * * * * * * * * * * * * * * * * * * * * * * * * * * * //


30
(
(1.718820658 -2.381825834 -0.1847487767)
(-1.375309166 -2.478193819 -0.8896984261)
(0.5964633166 -2.754490046 -0.9412766476)
(1.207795612 -2.553775358 -0.8627397266)
(1.798884872 -2.387007217 0.3762008086)
(0.12668484 -2.501432498 -1.569188056)
(-0.006631438198 -2.971739796 -0.03422055857)
(0.3100843715 -2.916305739 -0.5613346614)
(-0.2470690486 -2.983018938 0.07477126637)
(-0.8926278936 -2.820417229 0.2969917283)
(-0.06043670993 -2.844944074 -0.8661416775)
(-1.137445181 -2.32822289 -1.439788257)
(0.2914138896 -2.719209028 -1.169084602)
(-0.2073542441 -2.963893426 -0.2464987986)
(0.09282502831 -2.986317845 -0.0488405719)
(1.187340841 -2.730503882 0.2333564768)
(1.801378729 -2.358728777 0.3186355884)
(-1.250106946 -2.519912182 1.007760269)
(0.08255117192 -2.98178139 -0.05348383727)
(-0.8570998519 -2.484387999 -1.409106329)
(-0.4460733158 -2.57508399 -1.439325999)
(0.0689406279 -2.994999082 0.2085869693)
(1.10824598 -2.439866637 -1.322167755)
(-0.1836227508 -2.335586296 1.855037872)
(0.1310584852 -2.979652876 -0.2402340098)
(1.741853342 -2.36930844 0.5572973452)
(0.01198992632 -2.94467345 0.5479740929)
(-0.9325436042 -2.48271071 1.394152787)
(0.3085741034 -2.851541652 -0.8735780571)
(-0.8386778688 -2.571373355 1.297591828)
)


// ************************************************************************* //
