/*--------------------------------*- C++ -*----------------------------------*\
| =========                 |                                                 |
| \\      /  F ield         | OpenFOAM: The Open Source CFD Toolbox           |
|  \\    /   O peration     | Version:  2.1.x                                 |
|   \\  /    A nd           | Web:      www.OpenFOAM.org                      |
|    \\/     M anipulation  |                                                 |
\*---------------------------------------------------------------------------*/
FoamFile
{
    version     2.0;
    format      ascii;
    class       scalarField;
    location    "1.2";
    object      age;
}
// * * * * * * * * * * * * * * * * * * * * * * * * * * * * * * * * * * * * * //


29
(
0.005810666487
0.005414572051
0.00521219825
0.005012528222
0.004832306565
0.004639336976
0.004422739999
0.004210550983
0.004037211731
0.003830683388
0.00361583316
0.003406276712
0.003210414478
0.003011770957
0.002848803307
0.002647375423
0.002436900415
0.002221810662
0.00201341739
0.00182086248
0.001643177597
0.001421158404
0.0012237074
0.00101388586
0.0008323498764
0.0006093645565
0.0004312254124
0.0002094001922
1.690809005e-05
)


// ************************************************************************* //
