/*--------------------------------*- C++ -*----------------------------------*\
| =========                 |                                                 |
| \\      /  F ield         | OpenFOAM: The Open Source CFD Toolbox           |
|  \\    /   O peration     | Version:  2.1.x                                 |
|   \\  /    A nd           | Web:      www.OpenFOAM.org                      |
|    \\/     M anipulation  |                                                 |
\*---------------------------------------------------------------------------*/
FoamFile
{
    version     2.0;
    format      ascii;
    class       scalarField;
    location    "1.2";
    object      d;
}
// * * * * * * * * * * * * * * * * * * * * * * * * * * * * * * * * * * * * * //


29
(
0.000501049927
0.0005055057753
0.0005002540668
0.000609933998
0.0005009666831
0.0005817599436
0.0005115355097
0.0006227540528
0.0006284919901
0.0005131481952
0.0005085142872
0.0005431396552
0.0005228885125
0.0005376988167
0.0005928995908
0.0005511898543
0.0005005824604
0.0005000644967
0.0005000122649
0.0005561810139
0.0007876314661
0.0006848340289
0.0005438424843
0.0005456730036
0.0005038407625
0.0005074334519
0.0005003114947
0.0005066542918
0.0005000034416
)


// ************************************************************************* //
