/*--------------------------------*- C++ -*----------------------------------*\
| =========                 |                                                 |
| \\      /  F ield         | OpenFOAM: The Open Source CFD Toolbox           |
|  \\    /   O peration     | Version:  2.1.x                                 |
|   \\  /    A nd           | Web:      www.OpenFOAM.org                      |
|    \\/     M anipulation  |                                                 |
\*---------------------------------------------------------------------------*/
FoamFile
{
    version     2.0;
    format      ascii;
    class       scalarField;
    location    "1.2";
    object      mass0;
}
// * * * * * * * * * * * * * * * * * * * * * * * * * * * * * * * * * * * * * //


29
(
6.586301872e-08
6.763585547e-08
6.554966945e-08
1.188084001e-07
6.583019694e-08
1.030932112e-07
7.008514608e-08
1.264585827e-07
1.299863844e-07
7.075009702e-08
6.885065884e-08
8.389443606e-08
7.485588077e-08
8.139839929e-08
1.091294771e-07
8.768034847e-08
6.567884515e-08
6.5475178e-08
6.545466348e-08
9.008388359e-08
2.558396171e-07
1.681723598e-07
8.422053883e-08
8.507383819e-08
6.696972629e-08
6.841256985e-08
6.557224687e-08
6.809791262e-08
6.545119846e-08
)


// ************************************************************************* //
