/*--------------------------------*- C++ -*----------------------------------*\
| =========                 |                                                 |
| \\      /  F ield         | OpenFOAM: The Open Source CFD Toolbox           |
|  \\    /   O peration     | Version:  2.1.x                                 |
|   \\  /    A nd           | Web:      www.OpenFOAM.org                      |
|    \\/     M anipulation  |                                                 |
\*---------------------------------------------------------------------------*/
FoamFile
{
    version     2.0;
    format      ascii;
    class       scalarField;
    location    "1.2";
    object      nParticle;
}
// * * * * * * * * * * * * * * * * * * * * * * * * * * * * * * * * * * * * * //


29
(
1.858352127
1.785121035
2.30505914
1.197861166
1.938760743
1.296453613
2.230557396
0.973657207
1.105820373
2.098909287
1.976642882
1.587678053
1.976971907
1.802701357
1.054961817
1.596612339
2.234988183
2.291900239
1.905210094
1.595506653
0.5129448849
0.8757538853
1.562245854
1.570220932
2.066104303
2.151446955
2.025556372
2.056566281
2.060926986
)


// ************************************************************************* //
