/*--------------------------------*- C++ -*----------------------------------*\
| =========                 |                                                 |
| \\      /  F ield         | OpenFOAM: The Open Source CFD Toolbox           |
|  \\    /   O peration     | Version:  2.1.x                                 |
|   \\  /    A nd           | Web:      www.OpenFOAM.org                      |
|    \\/     M anipulation  |                                                 |
\*---------------------------------------------------------------------------*/
FoamFile
{
    version     2.0;
    format      ascii;
    class       Cloud<basicReactingParcel>;
    location    "1.2";
    object      positions;
}
// * * * * * * * * * * * * * * * * * * * * * * * * * * * * * * * * * * * * * //

29
(
(0.007183572938 0.001832923695 0.004170091391) 41442
(0.01568895375 0.001503303708 0.0187876116) 119959
(0.009350958481 0.0009486205153 0.01465564237) 96171
(0.01297648841 0.002885815285 0.005274851544) 45649
(0.01345013693 0.002914590917 0.01842765599) 120282
(0.009529483819 0.004152146714 0.005956570973) 49883
(0.01448341889 0.002999880596 0.01360200539) 92093
(0.01685467385 0.004482507036 0.01516371642) 102502
(0.01610057297 0.005473921202 0.007795378459) 4623
(0.01054303033 0.004896608367 0.01057400161) 73245
(0.01512003077 0.005550554883 0.0132291202) 88182
(0.01027071688 0.006232977837 0.01067477433) 73636
(0.01565182092 0.007256107738 0.01487232835) 98377
(0.009326964807 0.007621053735 0.01159621116) 78921
(0.01363418431 0.009193275441 0.007498186799) 60229
(0.009786374894 0.00870960872 0.01101030491) 79310
(0.01464395282 0.01025998083 0.01643424987) 108903
(0.01068659194 0.009898182468 0.01440436399) 99115
(0.01320499498 0.01004543868 0.01308173928) 89340
(0.0149383875 0.01116178595 0.01310966656) 89744
(0.01278448714 0.01108600831 0.01221552716) 84829
(0.01249305708 0.0117381249 0.0124524363) 84825
(0.01442898046 0.0128832118 0.01255064444) 9292
(0.01292313719 0.01305067227 0.01309636464) 90124
(0.01258702419 0.01355195579 0.01202935394) 8570
(0.01230043992 0.01421748121 0.01284590406) 90309
(0.01223348375 0.01474148573 0.01237024489) 85609
(0.0125027458 0.01539221253 0.01265817633) 9380
(0.01251061476 0.01595040727 0.01249910503) 85811
)


// ************************************************************************* //
