/*--------------------------------*- C++ -*----------------------------------*\
| =========                 |                                                 |
| \\      /  F ield         | OpenFOAM: The Open Source CFD Toolbox           |
|  \\    /   O peration     | Version:  2.1.x                                 |
|   \\  /    A nd           | Web:      www.OpenFOAM.org                      |
|    \\/     M anipulation  |                                                 |
\*---------------------------------------------------------------------------*/
FoamFile
{
    version     2.0;
    format      ascii;
    class       vectorField;
    location    "1.2";
    object      U;
}
// * * * * * * * * * * * * * * * * * * * * * * * * * * * * * * * * * * * * * //


29
(
(-0.899429709 -2.425205797 -1.409248578)
(0.5797557538 -2.662033131 1.143095603)
(-0.594931451 -2.869110236 0.4072539004)
(0.09401257399 -2.612063078 -1.425543186)
(0.1938384868 -2.693261738 1.209307655)
(-0.6332915679 -2.548648321 -1.395009546)
(0.4428142588 -2.924089592 0.2460315893)
(1.024924592 -2.731477363 0.6269375291)
(0.884253413 -2.604920087 -1.155393237)
(-0.5053136193 -2.885857731 -0.4973164525)
(0.7170576004 -2.877617435 0.1995477257)
(-0.6486321401 -2.858581317 -0.5310675997)
(0.9730265296 -2.715217517 0.7323824799)
(-1.045107975 -2.774634929 -0.297682461)
(0.3955130604 -2.387694994 -1.74423366)
(-1.018056635 -2.74816644 -0.5588811679)
(0.8734429514 -2.350505131 1.60280711)
(-0.8108021877 -2.739194968 0.8514699585)
(0.3480521097 -2.949696748 0.2872014562)
(1.332927579 -2.653806691 0.3332699874)
(0.1726953766 -2.991157683 -0.1726866972)
(-0.004872316193 -2.997912156 -0.03337865477)
(1.571236909 -2.544854274 0.04125205833)
(0.4162254812 -2.906213274 0.5866233538)
(0.1042927231 -2.937994456 -0.5640380793)
(-0.3268947539 -2.922984141 0.5666174293)
(-0.6172257923 -2.916798653 -0.300500259)
(0.01310425044 -2.901738841 0.7548921588)
(0.6277394741 -2.932970926 -0.05292716009)
)


// ************************************************************************* //
