/*--------------------------------*- C++ -*----------------------------------*\
| =========                 |                                                 |
| \\      /  F ield         | OpenFOAM: The Open Source CFD Toolbox           |
|  \\    /   O peration     | Version:  2.1.x                                 |
|   \\  /    A nd           | Web:      www.OpenFOAM.org                      |
|    \\/     M anipulation  |                                                 |
\*---------------------------------------------------------------------------*/
FoamFile
{
    version     2.0;
    format      ascii;
    class       volScalarField;
    location    "2";
    object      deltaf;
}
// * * * * * * * * * * * * * * * * * * * * * * * * * * * * * * * * * * * * * //

dimensions      [0 1 0 0 0 0 0];

internalField   nonuniform List<scalar> 
2828
(
3.098862409e-05
3.63000817e-06
3.858378404e-06
3.575593566e-06
1.870732015e-05
0.0003065120155
0.0003283139678
0.0003011666941
0.0001894539132
7.783543689e-05
4.177635547e-06
7.042712606e-06
1.05238935e-05
2.229867859e-05
6.095162933e-06
5.200193919e-06
4.974776483e-06
0.0001976210929
0.000255714142
0.0002983127126
0.000340177521
0.0003343854832
0.0001920838291
0.000116489656
1.427364652e-05
2.394746238e-05
2.450149679e-05
1.251055642e-05
3.340442858e-06
2.979828488e-06
3.04702474e-06
4.809431749e-06
1.056410773e-05
8.776033155e-05
0.0001734522542
0.0002366533209
0.0002944553108
0.0003647499331
0.0003892168388
0.0001871771716
0.0001031979557
6.983971736e-05
4.73214526e-05
2.069329996e-05
6.411289299e-06
2.750671092e-06
2.604040542e-06
2.510707637e-06
4.028712796e-06
5.384789401e-06
1.041077497e-05
1.73658236e-05
1.431176963e-05
6.485275609e-05
0.0001432609511
0.0002126715882
0.0002919032763
0.00039414745
0.0004483382195
0.0002103032316
4.370828883e-05
5.629411628e-05
8.922419032e-05
1.996604949e-05
5.140019676e-06
4.276373016e-06
3.544390415e-06
2.649649287e-06
3.90710007e-06
3.834437157e-06
4.713567511e-06
1.099464057e-05
2.872741521e-05
3.374125416e-07
3.38868783e-06
3.438226466e-05
0.000107631704
0.0001886034816
0.0002851578156
0.0004169727405
0.000494058013
0.0003054747486
3.701184005e-05
2.08365028e-05
5.601333532e-05
2.902329883e-05
6.020396377e-06
8.39933596e-06
9.176777751e-06
4.320689648e-06
5.519244581e-06
4.795153181e-06
4.326268789e-06
7.776636196e-06
2.40263854e-05
3.095705603e-05
7.933638858e-07
5.382983497e-08
4.304913452e-07
7.996347499e-06
6.989041184e-05
0.0001797085495
0.0002677755198
0.0004339236851
0.000549772498
0.0004246859681
4.227248039e-05
7.886228007e-06
1.334312233e-05
1.268151276e-05
6.798745339e-06
1.114891464e-05
2.923577046e-05
2.436228116e-05
1.463558563e-05
8.092865212e-06
5.155230885e-06
6.39765156e-06
1.891283281e-05
3.60638753e-05
7.819584628e-07
4.536445803e-05
2.959852217e-05
1.572742695e-05
7.865961055e-06
1.247451697e-05
0.0001316048894
0.0002401526724
0.0004483843225
0.0006288984571
0.0005009832993
3.041456487e-05
8.719397461e-06
1.146736815e-05
6.754769015e-06
5.30228281e-06
8.709789589e-06
2.583672171e-05
5.932525505e-05
5.54309911e-05
2.185482841e-05
7.240564747e-06
5.772457108e-06
1.411803742e-05
3.172198299e-05
3.105006798e-05
3.256589376e-07
2.21616359e-05
3.414665663e-05
3.112767662e-05
2.389794575e-05
4.10809885e-05
1.519269885e-05
0.0001995641808
0.0004702804239
0.0007256034382
0.0005708673799
7.210045733e-05
1.827076334e-05
3.415532167e-05
2.892669384e-06
2.70670755e-06
3.603328675e-06
9.73711047e-06
3.383196762e-05
7.499635226e-05
5.396058136e-05
1.313156621e-05
6.273261981e-06
1.181153157e-05
2.446762807e-05
2.79628384e-05
1.693357862e-05
1.028086198e-07
4.275014966e-08
9.042044086e-06
2.40762323e-05
3.285558708e-05
6.744385424e-05
4.37271235e-05
5.80102418e-06
0.0001267724604
0.0005120247719
0.0008330518803
0.0006174842415
0.0001047979094
2.848762584e-05
5.224643964e-05
1.308398031e-05
4.344812481e-06
2.162560225e-06
3.422774349e-06
9.805761469e-06
3.675936647e-05
5.802307514e-05
2.266272329e-05
8.959354205e-06
1.4347982e-05
2.75283011e-05
3.423335327e-05
1.580568298e-05
5.210736696e-08
4.402644846e-08
3.4508084e-06
1.380631274e-05
2.574417726e-05
3.526813421e-05
4.880779994e-05
5.146990416e-05
0.0001794623288
0.0006581306748
0.000899616094
0.0006368825131
0.0001266641785
3.141376237e-05
4.075683508e-05
3.269299206e-05
1.306292848e-05
3.523777461e-06
2.537518682e-06
3.713322059e-06
1.254288158e-05
3.08144901e-05
1.975165559e-05
9.474946343e-06
1.26110768e-05
2.454163239e-05
4.135482139e-05
2.865157814e-05
7.815680197e-08
7.860747052e-08
2.316108109e-06
1.027684903e-05
2.304216564e-05
3.980609373e-05
7.731168463e-05
0.0002852148591
0.0003538222347
0.0007149514433
0.0007929899911
0.0006618952871
0.0001802833376
3.790945323e-05
2.410291179e-05
3.737384683e-05
2.947904993e-05
5.533472299e-06
2.370051979e-06
1.920351281e-06
5.289549538e-06
1.253683144e-05
8.15022566e-06
5.296753022e-06
6.935628411e-06
1.404167167e-05
3.30432443e-05
4.534151375e-05
4.152916297e-05
2.229165911e-07
4.104035372e-07
2.983421764e-06
9.737901033e-06
2.410695986e-05
5.145921155e-05
0.0001368537536
0.0001669581904
0.0001346832711
0.0004211674603
0.0005250105522
0.0006925380595
0.0002778143879
6.104769753e-05
2.043201007e-05
3.431569758e-05
4.556620815e-05
8.602170761e-06
1.925744316e-06
1.073486365e-06
3.22180017e-06
2.478995308e-06
1.652345839e-06
1.860913269e-06
3.30603588e-06
7.831715519e-06
2.265281402e-05
4.848223741e-05
7.025778732e-05
2.84662445e-08
2.829401915e-07
2.085663492e-06
7.254094895e-06
1.635963386e-05
2.721933604e-05
4.661953032e-05
9.891543054e-05
6.663975777e-05
2.230841261e-05
2.853744625e-05
0.0002850373541
0.0006504458528
0.0003732128504
0.0001197070555
4.862346307e-05
2.991360918e-05
4.718155452e-05
5.405092175e-06
1.375093085e-07
1.205517868e-06
1.192986427e-06
3.143106319e-07
4.221829495e-07
1.058897137e-06
2.909666589e-06
6.349571667e-06
1.195438097e-05
1.828564241e-05
3.542497929e-05
1.186375595e-13
1.012854072e-06
6.041298032e-06
1.64008517e-05
2.978925612e-05
4.201133719e-05
6.090075221e-05
9.698172475e-05
6.820186606e-05
3.811653618e-05
4.454963959e-05
0.0001172347065
0.0005000553071
0.0004301228228
0.0002112029854
0.0001139105767
2.581804533e-05
2.563011903e-05
4.952165819e-10
2.252749073e-07
3.71045779e-06
2.881546973e-06
5.999699396e-07
1.303660733e-06
3.477210301e-06
1.456162672e-05
8.510748816e-06
3.894531192e-06
3.363169694e-06
4.97745491e-06
3.419155101e-13
3.881614346e-06
1.607835843e-05
3.220702614e-05
4.612621572e-05
5.463847092e-05
5.989881199e-05
7.164699144e-05
0.0001130058573
8.770473543e-05
0.0001079266247
0.0004004334945
0.0003274567114
0.0004462583156
0.0002891448261
0.0001882856154
2.564035068e-05
3.409570975e-06
6.084163117e-10
3.219908751e-07
7.464981494e-06
1.837991931e-05
8.775558716e-06
7.032996154e-06
2.87773514e-05
5.597352168e-05
5.071992218e-07
3.000639801e-06
6.050984636e-06
4.38126423e-06
1.618728812e-12
1.452043304e-05
3.668476447e-05
5.155682724e-05
5.67167934e-05
5.671898851e-05
5.442925071e-05
8.366924624e-05
5.416609588e-05
0.0001628498291
0.0001440535138
9.310405374e-05
0.0001477748338
0.0004188947289
0.000321270821
0.0002564638507
3.743201613e-05
8.067321041e-06
6.74570838e-10
4.905362007e-07
9.298359569e-06
2.782466735e-05
3.028098543e-05
5.15509788e-06
4.234596313e-05
1.449896479e-05
5.310536311e-06
8.169255715e-06
3.133807714e-05
3.600062881e-05
9.717533551e-11
4.79403948e-05
6.271720514e-05
5.905436574e-05
4.723392767e-05
3.896003907e-05
3.827171992e-05
4.654438587e-05
9.785798939e-05
8.706942383e-05
8.452267059e-05
6.603259386e-05
7.790294579e-05
0.0003370185274
0.00031922851
0.000323392272
6.855564466e-05
1.631929981e-05
6.728601697e-09
7.500828349e-07
7.170267555e-06
2.035955515e-05
3.322097637e-05
1.186090278e-05
2.682149947e-05
4.688611521e-05
8.058940414e-06
1.373294524e-06
7.274727873e-06
1.68035215e-05
7.146961445e-05
5.680388017e-05
3.760170867e-05
2.136289006e-05
1.870706197e-05
2.780264436e-05
4.515702755e-05
6.766036139e-05
7.923603684e-05
7.292536675e-05
6.270307666e-05
6.217598492e-05
0.0001949774697
0.0002949152972
0.0003916162846
0.000110312109
2.613037478e-05
1.930629606e-05
7.856133254e-07
2.73916017e-06
6.504846032e-06
1.484980844e-05
4.767016926e-05
3.565766226e-06
3.492966895e-05
7.349501817e-05
1.403288243e-05
1.006930741e-06
6.577753672e-08
4.669866018e-05
1.982493879e-05
8.847760296e-06
1.313044171e-05
2.839547013e-05
4.497275734e-05
5.810915765e-05
6.629592719e-05
6.683181085e-05
5.925760103e-05
5.14159496e-05
4.596934559e-05
7.175872417e-05
0.0002453636854
0.0004626599115
0.0001611051691
3.381813552e-05
1.516477852e-05
5.427170478e-06
2.768299416e-07
8.290429779e-07
4.531827159e-06
4.999846411e-06
3.39799235e-05
2.120070733e-05
1.917033863e-06
5.834724527e-07
2.114089007e-07
2.331828282e-07
8.92010689e-06
9.618563846e-13
7.791756111e-06
2.601791707e-05
4.320385747e-05
5.238764989e-05
5.415909276e-05
5.205829728e-05
4.884518062e-05
4.55706119e-05
4.111772913e-05
3.3834829e-05
2.828348266e-05
0.0001345385391
0.0005453241509
0.0002181810112
5.021262826e-05
1.979848745e-05
1.566776827e-05
1.734803416e-07
5.114479925e-06
5.595847158e-06
4.493430792e-06
1.618963445e-05
5.031986725e-06
1.883661819e-06
8.514061541e-07
1.175484397e-06
5.024369382e-12
2.024638236e-05
4.179326954e-05
4.789766366e-05
4.46826077e-05
4.111543989e-05
4.058450609e-05
4.128160702e-05
3.961739934e-05
3.337647561e-05
2.481981139e-05
2.999858229e-05
6.8024917e-05
0.0006465398688
0.0002611242015
0.0001231134868
2.592847397e-05
4.223237138e-06
7.823607118e-06
4.489316077e-06
3.843739706e-06
3.540530778e-06
3.112048236e-06
3.513422253e-06
2.442625555e-06
3.854601328e-06
1.110784585e-05
2.735267448e-07
4.911581345e-05
5.178807637e-05
3.887647385e-05
3.188839394e-05
3.401346091e-05
3.85167349e-05
3.853932686e-05
3.289252482e-05
2.29707223e-05
1.898917223e-05
3.956483543e-05
6.652946288e-05
0.0006336408029
0.0002339309557
9.445060403e-05
0.000113626791
5.028925689e-05
2.965484283e-06
4.455633512e-06
5.229312805e-06
2.422651788e-06
1.645010412e-06
1.828764189e-06
2.405298617e-06
1.667091028e-05
7.673401141e-05
2.646779745e-05
1.771024217e-05
2.724214169e-05
3.779212697e-05
3.830475246e-05
3.136886693e-05
2.126955132e-05
1.122286437e-05
2.282052994e-05
5.36446567e-05
7.536544826e-05
0.000413905429
0.0002143787017
9.960128424e-05
7.458861746e-05
3.811664421e-05
8.540297602e-06
4.307515157e-06
7.149444294e-06
1.414803718e-06
8.627961274e-07
7.186331376e-07
9.956661274e-07
1.717117142e-06
1.581162759e-05
1.261228371e-05
2.805617255e-05
4.071764132e-05
3.866056188e-05
2.855057128e-05
1.791450704e-05
8.064916564e-06
7.398077941e-06
3.656522119e-05
6.707031274e-05
8.2982865e-05
0.0001704215001
0.0001908105759
0.0001091440921
9.547902626e-05
5.556785659e-05
1.512712079e-05
2.745938211e-06
8.657141582e-06
1.652629721e-06
1.365449845e-06
6.817422685e-07
4.245876218e-07
5.229974025e-05
3.919078745e-05
3.859245165e-05
2.425310963e-05
1.264337344e-05
5.685619216e-06
1.010149903e-06
1.664260703e-05
5.489420387e-05
6.686939147e-05
8.008584162e-05
9.161960345e-05
0.0001601519324
0.0001058608995
0.0001122379227
8.375766714e-05
2.809144143e-05
1.771048157e-06
9.269987621e-06
3.372984239e-06
2.256871192e-06
9.581772476e-07
7.426731272e-05
1.863672518e-05
5.692728357e-06
8.55933521e-07
4.399992112e-08
9.017742387e-10
3.68445064e-05
7.32171257e-05
5.44048603e-05
6.42031559e-05
5.852257566e-05
0.0001090505529
8.634585904e-05
0.000113944609
0.0001168189229
5.369611069e-05
1.309713467e-06
9.373578191e-06
6.956990462e-06
3.191915362e-06
1.494855883e-07
1.079621893e-07
1.854434304e-08
1.496856878e-08
5.32300209e-05
9.977450204e-05
6.381906805e-05
5.534764526e-05
4.476858443e-05
3.736048556e-05
5.582565255e-05
8.957612326e-05
0.0001404580061
0.0001005690857
8.74862426e-07
8.542499896e-06
9.056455507e-06
1.707964629e-07
2.367147692e-08
6.903798371e-09
7.547595849e-05
0.0001362034731
0.0001121877412
6.241579421e-05
2.544098796e-05
7.864716645e-06
3.04375807e-05
4.135498109e-05
0.0001190236884
0.0001679961977
2.047361342e-06
0.0001033473427
0.0001384884477
3.267867807e-05
7.900506762e-06
2.0666234e-06
3.888286826e-06
2.84620045e-05
1.003904995e-05
4.50755642e-07
0.0003124066559
0.0002936292332
0.0002902169349
0.0001913811047
0.0001981006585
0.0001928798439
5.613129061e-05
4.816179799e-06
4.558786097e-06
3.658742462e-06
4.337934334e-06
4.322500776e-06
4.658168037e-06
4.395530921e-06
2.543264992e-06
5.544057477e-06
1.844754136e-05
1.202810577e-05
2.03915516e-05
1.248166899e-05
7.004980747e-06
5.948840942e-06
5.809151488e-06
0.0002654935332
0.0002846394973
0.0002998161249
0.0003190621076
0.0003204564915
0.0003327087325
0.0003288293554
0.0003168877943
3.743137198e-06
3.739226113e-06
5.092604356e-06
3.843982501e-06
4.502289888e-06
5.169354401e-06
5.652197872e-06
8.399362836e-06
0.000139704917
0.0001849023111
0.0002219693395
0.0002303818163
7.640115348e-06
1.073824597e-05
1.261911642e-05
1.340177667e-05
2.155624734e-05
4.790151698e-05
5.83351528e-05
7.917044793e-05
0.0001174698673
0.0001282098003
6.048941154e-06
8.785908557e-06
1.352385437e-05
1.520625468e-05
2.257279086e-05
7.961758936e-07
2.138289349e-06
4.473829943e-06
2.768505531e-05
3.233439841e-05
4.28193837e-07
2.79587603e-07
2.889566377e-07
3.332050773e-05
2.785492205e-05
8.543033124e-05
4.887537813e-05
2.752725226e-05
5.028174018e-07
3.524741432e-05
3.358538823e-05
3.026784982e-05
2.884422159e-05
3.752973911e-07
1.976508963e-05
4.004144786e-05
2.977308931e-05
2.403781804e-05
2.627362925e-05
2.721063229e-07
3.104461763e-07
1.521172412e-05
1.000183418e-07
6.444466361e-08
9.562108115e-08
2.17426409e-05
1.362001753e-05
1.212532061e-05
6.733661018e-08
6.004181149e-08
4.541276191e-08
4.332589883e-08
3.684602383e-05
2.654047688e-05
1.727785088e-05
2.622492821e-05
1.071288845e-07
8.579515942e-08
5.941150351e-05
3.203531866e-08
3.738066358e-07
2.796258763e-07
6.397347536e-05
6.381593278e-05
2.46779042e-08
1.470105488e-07
1.057754815e-07
1.390534342e-05
1.996374318e-05
4.291962733e-05
1.819836561e-13
4.492105561e-07
2.442529726e-07
2.99890317e-06
3.385173859e-06
7.438746205e-06
6.94857452e-13
2.136390708e-06
9.221002622e-07
1.056257729e-05
7.260844156e-06
3.479504869e-06
1.322015963e-11
1.180729201e-05
5.039021359e-06
6.702737677e-05
7.508818326e-05
2.49195524e-05
7.490219866e-05
2.815335296e-05
1.303241434e-06
2.186182298e-05
7.040898188e-05
7.455074676e-05
7.694860486e-08
6.711227384e-05
4.108509673e-06
1.06479061e-09
3.00703923e-05
4.681821089e-07
8.405671862e-07
2.505519284e-07
1.550877857e-06
3.253013596e-13
4.882885843e-10
4.619893841e-06
4.73919673e-06
1.918362689e-06
1.710755357e-10
7.416073663e-11
2.057025487e-05
5.077294452e-07
6.084223278e-05
2.936995425e-05
4.930645887e-06
8.911839679e-06
2.491265694e-05
0.0001320703479
6.437916006e-06
5.914896709e-07
4.291654849e-05
5.936250937e-07
7.798445939e-07
1.279188753e-06
6.061217639e-07
6.920926406e-07
4.51657719e-07
4.645917093e-07
6.571348236e-07
2.931824154e-05
1.149978729e-06
7.470062491e-07
5.502800134e-07
3.615589243e-05
8.748522344e-08
1.050479872e-07
1.023678115e-05
8.986066922e-06
7.92621998e-06
5.742475233e-06
5.465778069e-06
2.082611193e-06
1.241786719e-07
1.623301694e-07
2.107181029e-07
1.583996135e-07
8.05911064e-06
1.185983725e-05
1.102380364e-05
1.804751256e-10
1.647742257e-10
4.213714969e-10
2.246114135e-08
5.863374282e-09
6.668175674e-05
4.210473596e-05
7.182485226e-05
0.0001935012221
0.0001838574605
0.0001935601069
0.0001906416786
0.0001259253601
3.680347572e-06
9.783170122e-05
0.0001128301904
9.530312217e-07
6.339155843e-05
5.681712224e-07
3.468038102e-07
1.682991509e-05
2.200295261e-07
1.892103526e-07
3.657067367e-06
5.940084906e-07
2.330702693e-06
1.933785605e-06
8.768431416e-06
2.25951926e-05
1.171209062e-05
3.475514031e-05
2.367447242e-05
4.828139784e-07
0.0003148641876
0.0003019729625
0.0002908480851
0.0001915769937
0.0002045858329
0.0002026418075
9.385740861e-05
1.10486283e-05
5.94237744e-06
6.30049331e-06
8.604212048e-06
5.310247554e-06
1.319433865e-05
1.88269408e-05
8.929389993e-06
1.920575894e-05
2.564370909e-05
2.591474515e-05
1.783069896e-05
8.28872855e-06
1.143691162e-05
4.505450714e-06
3.893484143e-06
5.117551956e-06
0.0002472224809
0.0002701884864
0.0002784787396
0.0002960162773
0.0003244421847
0.0003204870799
0.0003512568786
0.000362492197
0.000343258758
0.0003596013605
0.0003363294066
0.0003173944756
0.0001897724392
0.0001587667885
0.0001920216101
0.0001237040228
6.95899907e-05
3.322305889e-05
3.838904639e-05
3.127010866e-05
1.632274319e-05
3.475691311e-05
3.892265028e-05
3.159631074e-05
2.347520654e-05
1.42738546e-05
2.011279555e-05
8.614538199e-06
4.233429696e-06
5.715275237e-06
2.780029826e-06
2.634536042e-06
3.02710408e-06
2.61708172e-06
2.627560409e-06
2.994062467e-06
2.652255223e-06
3.011831099e-06
3.359900856e-06
4.410576795e-06
6.049095725e-06
8.328014701e-06
0.0001594522752
0.0001955761665
0.0002096108805
0.0002249314296
0.0002548280998
0.0002625170162
0.0002932688669
0.000336454131
0.0003300381524
0.0003795695262
0.0004097023662
0.0003852962614
0.0004200704047
0.0003773829055
0.0003568977013
0.0001911287613
7.459734441e-05
0.0001134373954
6.938645688e-05
6.838632706e-05
8.424432737e-05
7.558888778e-05
8.256639851e-05
5.786078734e-05
6.997462684e-05
4.84671677e-05
4.192326985e-05
1.888072482e-05
8.043317001e-06
1.026028622e-05
5.386799203e-06
3.456624549e-06
3.564290567e-06
3.203037621e-06
3.33559677e-06
2.717232614e-06
2.890113532e-06
2.65392067e-06
2.53924719e-06
2.521591603e-06
3.256424673e-06
3.024408277e-06
3.799413655e-06
3.978532473e-06
4.726566639e-06
4.162578993e-06
4.693400175e-06
6.574874498e-06
8.075999459e-06
2.652341613e-05
3.741443592e-05
4.95996196e-05
8.438258983e-05
0.0001020187375
0.0001259494149
0.0001648420711
0.0001805301542
0.0002001797837
0.000237635911
0.0002467799705
0.0002895083365
0.0003479049803
0.0003427703058
0.0004068250247
0.0004511347581
0.0004325091614
0.0004722468242
0.0004185344139
0.0003973569857
0.0002495061328
6.703686752e-05
5.664157697e-05
3.370373107e-05
2.777939754e-05
4.413261065e-05
3.470602428e-05
5.568323118e-05
7.923669612e-05
8.203380903e-05
7.4853453e-05
6.383223797e-05
2.577003247e-05
7.020923038e-06
7.083637849e-06
5.430209213e-06
4.488105089e-06
3.794033454e-06
6.128896019e-06
8.755456282e-06
4.956105903e-06
5.031033548e-06
3.876091829e-06
2.98875616e-06
3.047811723e-06
4.085592257e-06
3.563548881e-06
4.421753391e-06
4.316577667e-06
3.882139073e-06
4.104967037e-06
4.000537979e-06
3.998747137e-06
4.289547953e-06
5.574655433e-06
6.613184452e-06
9.015308605e-06
1.632827713e-05
2.065625055e-05
1.260575652e-07
2.744052059e-07
8.174201603e-07
1.065428564e-06
8.102229051e-06
1.657451146e-05
2.007784809e-05
4.539582494e-05
6.547968801e-05
8.871426629e-05
0.0001351217807
0.0001490422271
0.0001810709874
0.0002122156064
0.0002264815791
0.0002780433319
0.0003511834645
0.0003508965018
0.0004255812891
0.0004816188741
0.0004661644772
0.0005187044246
0.000475655873
0.0004440382985
0.0003683858263
0.0002166642319
0.0001183576956
4.58094186e-05
1.550360554e-05
2.030817018e-05
1.275506456e-05
1.839032493e-05
3.293755174e-05
3.038692095e-05
3.699883682e-05
6.384723422e-05
2.164007733e-05
7.628085927e-06
7.462185804e-06
6.595040707e-06
6.313615502e-06
5.399559679e-06
1.031863756e-05
2.054121701e-05
1.528920029e-05
1.932290414e-05
1.498085217e-05
6.642685394e-06
8.838772668e-06
8.288806887e-06
5.235717292e-06
7.994232255e-06
7.017075789e-06
5.247780548e-06
5.964069315e-06
5.121776964e-06
4.406359803e-06
4.634058894e-06
4.93218226e-06
5.09735716e-06
6.961478812e-06
1.211420329e-05
1.388804736e-05
2.127600002e-05
3.171719738e-05
3.264998878e-05
1.612943037e-05
9.792932467e-06
1.499051905e-07
6.170390634e-06
3.99114494e-06
2.134110478e-06
2.461889577e-06
4.022187957e-06
2.42540948e-05
5.076978304e-05
0.000126063549
0.0001269738674
0.0001720931399
0.0001684869579
0.0001934611609
0.0002547149075
0.0003428797437
0.0003485166729
0.0004417011749
0.0005241047002
0.000501144042
0.0005871326573
0.000547126452
0.0005107682238
0.0004663536569
0.0002833455449
0.0003070363623
2.118160152e-05
6.863969613e-06
6.39524802e-06
8.957877046e-06
1.125772324e-05
1.165864657e-05
1.17454156e-05
9.011576074e-06
1.291662567e-05
1.000337432e-05
6.30006998e-06
7.236937858e-06
6.388141744e-06
6.903366999e-06
6.939405005e-06
1.057958327e-05
1.855944957e-05
2.025409547e-05
3.104919175e-05
4.295902839e-05
2.996024438e-05
4.772860618e-05
4.053459435e-05
1.841213911e-05
3.047083658e-05
2.014932668e-05
1.093976199e-05
1.255767019e-05
8.207257194e-06
6.247260636e-06
5.948480328e-06
5.123807032e-06
4.957373802e-06
6.000883991e-06
9.451508138e-06
1.068694496e-05
1.650922606e-05
2.671633402e-05
2.958185986e-05
3.30805178e-05
3.707589314e-05
3.851618637e-05
3.508962549e-05
3.037020671e-05
2.178284865e-05
2.493639478e-05
1.976254428e-05
1.122463478e-05
1.523693964e-05
1.176637347e-05
6.308260382e-06
1.656608036e-05
8.219369976e-05
0.000123617386
6.520955128e-05
9.523099117e-05
0.0001358402319
0.000225401206
0.000332127478
0.0003358056131
0.0004566066608
0.0005730385556
0.0005479180481
0.0006751104558
0.0006475585786
0.0005929446783
0.0005370644954
0.0002582146637
0.0002491132522
4.907313827e-05
1.591567606e-05
8.34801772e-06
1.152321024e-05
7.436916702e-06
8.827461859e-06
1.840868731e-05
5.682211916e-06
6.030145644e-06
3.9891924e-06
3.197940258e-06
4.768840842e-06
3.843073393e-06
4.227528179e-06
5.911946634e-06
6.048887562e-06
9.851933514e-06
1.473623284e-05
1.7252096e-05
3.097513537e-05
4.240198732e-05
5.149307986e-05
7.031643871e-05
6.424987881e-05
7.504236105e-05
6.063469932e-05
3.806245686e-05
3.723070513e-05
1.886412885e-05
1.197690906e-05
9.471291458e-06
6.039040827e-06
5.449431351e-06
5.803386171e-06
7.851639355e-06
8.433418383e-06
1.231577348e-05
1.929172988e-05
2.284903085e-05
2.711291022e-05
3.160692345e-05
3.533109899e-05
3.845030577e-07
5.219709948e-06
1.009243222e-05
1.425063951e-05
2.31782929e-05
3.055593131e-05
2.970705189e-05
3.307719558e-05
3.38672739e-05
3.363636537e-05
4.192309767e-05
2.71163888e-05
0.000107278856
8.004889025e-05
2.281870359e-05
2.331458789e-05
3.687801021e-06
3.512109283e-05
6.524045912e-07
2.212257474e-05
5.605940696e-05
0.0001641621902
0.0003317110435
0.0003358834301
0.0004920664816
0.0006331961743
0.0006008383069
0.0007796447623
0.0007538193064
0.0007031124893
0.000598496216
0.000309636777
0.0002817725108
9.177657198e-05
3.75968218e-05
2.820263398e-05
2.485662423e-05
1.675880668e-05
9.118470289e-06
4.809151245e-05
2.298869653e-05
1.09922812e-05
5.22577059e-06
3.040447526e-06
2.2943012e-06
2.69125322e-06
1.958803319e-06
2.655913287e-06
2.291765888e-06
3.330405329e-06
5.692935029e-06
5.343025627e-06
9.48149775e-06
1.799949817e-05
1.852662465e-05
3.5638419e-05
5.642432758e-05
5.777336806e-05
7.100158239e-05
7.462946601e-05
6.259431519e-05
3.878515984e-05
2.891381336e-05
1.811588736e-05
8.963270361e-06
7.11313863e-06
7.37504447e-06
9.099904799e-06
8.023524109e-06
1.28273133e-05
1.840873123e-05
1.763207361e-05
2.510291902e-05
3.006556087e-05
2.910076975e-05
2.925683028e-05
2.250982891e-05
2.136852477e-05
2.422260776e-08
1.535840111e-06
2.893058422e-06
5.645531808e-06
1.171182528e-05
1.675244587e-05
1.85716372e-05
2.495430553e-05
2.963318192e-05
2.99196393e-05
3.404771033e-05
3.809536912e-05
4.434552642e-05
6.068727001e-05
8.735858222e-05
6.343644251e-05
4.573375542e-05
1.540607837e-05
1.925848353e-05
3.296685146e-05
2.86494767e-05
9.488771736e-05
0.000286608255
0.0002676674937
0.0005724963325
0.0007237830955
0.0006708400222
0.000877446702
0.00081013618
0.0007917832326
0.0006287805867
0.0003613846841
0.0003354940413
0.0001144313295
4.310425988e-05
4.159976551e-05
3.021221094e-05
3.688611141e-05
2.825180878e-05
4.851846536e-05
3.845727514e-05
3.419733017e-05
2.416424686e-05
1.309495936e-05
6.481433165e-06
7.776300262e-06
3.813949869e-06
2.393326444e-06
2.689013909e-06
2.522658952e-06
2.526943458e-06
2.738677615e-06
3.580392207e-06
5.371381288e-06
5.690553656e-06
1.077380879e-05
1.967066734e-05
2.134960295e-05
3.598620005e-05
5.434551624e-05
4.469968496e-05
3.846635481e-05
4.284651285e-05
2.355060208e-05
1.309248711e-05
1.146355157e-05
1.002932322e-05
1.111215431e-05
1.054901646e-05
1.4493241e-05
2.006882284e-05
2.015182653e-05
2.79496849e-05
3.631771855e-05
3.386723082e-05
3.983049174e-05
3.360843313e-05
2.659489018e-05
4.814667625e-08
4.695079587e-07
7.800990001e-07
2.172620559e-06
5.448625607e-06
7.977522762e-06
1.015270485e-05
1.580738382e-05
2.004169615e-05
2.174504171e-05
2.739516687e-05
3.03517377e-05
3.256677759e-05
3.709225522e-05
4.148685732e-05
4.186347499e-05
5.981701192e-05
6.179770508e-05
0.0001183926571
0.0001945524989
5.943398426e-05
0.0003307871782
0.0005023154474
0.0003765773318
0.0007346491339
0.0008271505432
0.0007815357078
0.000879905629
0.000780320908
0.000805708853
0.0006469710471
0.0004329999705
0.0003924527918
0.0001473213455
5.184064713e-05
4.553036412e-05
3.34995401e-05
3.864963439e-05
4.002118301e-05
3.189635667e-05
3.277798424e-05
3.70351451e-05
3.666924679e-05
3.223307234e-05
2.219389752e-05
2.048299539e-05
9.210494064e-06
6.084819237e-06
4.52691285e-06
3.091795565e-06
2.792038302e-06
2.473530068e-06
2.272905769e-06
2.741344837e-06
2.620870194e-06
4.065978307e-06
6.361055311e-06
7.859730442e-06
1.447664772e-05
2.264518452e-05
2.016157844e-05
1.949226935e-05
2.913029869e-05
1.386601578e-05
9.255302924e-06
1.210759334e-05
7.609948648e-06
7.97367537e-06
1.006406617e-05
9.726225575e-06
1.314003597e-05
1.722195802e-05
1.912507277e-05
2.825779824e-05
3.402488677e-05
3.820692629e-05
4.238872204e-05
3.963950522e-05
1.009169829e-07
9.745017175e-08
6.443247793e-08
1.62532242e-07
8.463560423e-07
5.458673336e-07
3.53536051e-06
8.473199084e-06
5.621428546e-06
1.713726248e-05
3.257312964e-05
1.612994797e-05
6.046714432e-05
0.0001039598544
3.10131037e-05
0.0001502715964
0.0001958590827
5.055178245e-05
0.0002418418033
0.0002766326842
0.0001597281554
0.0002761453415
0.0002687537838
0.0002869883598
0.0003109147065
0.0004655468999
0.000520191692
0.0006030541265
0.0006710260557
0.0007821571404
0.0006628291595
0.0006993605012
0.0007404696735
0.0006799187554
0.0005363744534
0.0004829978989
0.0002254726275
8.577806086e-05
6.461650856e-05
4.630374358e-05
3.380839522e-05
3.540432242e-05
1.955090953e-05
2.336761648e-05
2.7697692e-05
3.627377636e-05
4.841187776e-05
4.141761477e-05
3.850655988e-05
1.692144387e-05
1.286311792e-05
6.6317025e-06
3.41847855e-06
3.29212625e-06
2.137211556e-06
1.499463571e-06
1.915384606e-06
1.390775221e-06
2.008580856e-06
2.754128445e-06
3.862604261e-06
6.148531326e-06
9.521391487e-06
6.791018832e-06
5.35780062e-06
1.141426607e-05
3.944882555e-06
3.302108756e-06
5.956961949e-06
3.265474942e-06
3.724848807e-06
5.675706234e-06
4.749957024e-06
6.666612331e-06
9.417442278e-06
1.026814932e-05
1.697723339e-05
2.203367538e-05
2.77979936e-05
4.056043854e-05
4.249721412e-05
5.087479981e-05
5.78921512e-05
4.382500652e-05
4.261912816e-07
8.575486126e-07
1.637189674e-07
1.356471719e-06
2.589015752e-06
1.410671263e-06
4.674294204e-06
7.684220589e-06
5.544969118e-06
1.16196015e-05
1.633179576e-05
1.594798798e-05
2.150941345e-05
2.770645099e-05
3.457215892e-05
4.016509502e-05
7.000811944e-05
8.746646361e-05
0.0001017458207
0.0001092283885
0.000167559765
8.814178343e-05
5.723741588e-05
0.0001397024222
3.651284232e-05
4.143896193e-05
0.0002368868971
0.0001978061546
0.0002667990045
0.0004572702689
0.000399861943
0.0006187848174
0.0006604260363
0.0006862813836
0.0006097980694
0.0005823097834
0.0003292912714
0.0001541972389
0.0001159731105
8.497327648e-05
5.220832506e-05
3.797734015e-05
2.93645341e-05
2.124323756e-05
2.093858585e-05
3.209564645e-05
5.155066408e-05
5.207902442e-05
4.8613403e-05
2.246858424e-05
2.133881387e-05
1.001556052e-05
2.129076822e-06
3.928818235e-06
3.851705542e-07
5.226678575e-07
1.037961204e-06
1.051143958e-06
1.804717012e-06
1.862331037e-06
2.36529718e-06
1.535067824e-06
3.235773191e-06
8.916387641e-07
6.945083251e-07
1.923772084e-06
6.917452347e-07
8.453765788e-07
1.633373483e-06
1.165600833e-06
1.711728556e-06
2.374776424e-06
2.652222969e-06
4.152983622e-06
4.923649416e-06
6.555180913e-06
1.072614082e-05
1.329083239e-05
1.728981267e-05
2.564754507e-05
3.525831915e-05
3.548888172e-05
4.828803454e-05
6.146674224e-05
5.195441677e-07
1.537024712e-06
8.811220627e-07
3.533669725e-06
6.705189218e-06
4.160155625e-06
1.10618496e-05
1.643560067e-05
1.137366801e-05
2.24946175e-05
2.871361017e-05
2.183091709e-05
3.4558501e-05
4.129596475e-05
3.32759891e-05
5.627624634e-05
8.459910826e-05
7.554419354e-05
0.0001035161936
9.308498546e-05
9.390718309e-05
6.41263289e-05
3.758428538e-05
3.825211313e-05
2.545732563e-05
2.392177803e-05
1.730480487e-05
2.66383954e-05
4.318463077e-05
9.059264013e-05
0.0001751603583
0.000455870791
0.0005456763334
0.0005833842587
0.0005940667996
0.0006129479348
0.0004067654341
0.000243973573
0.0001980130673
0.0001635947746
0.0001187496116
7.944914417e-05
7.797442194e-05
3.46003296e-05
2.54322088e-05
2.773358942e-05
3.958817016e-05
4.698236058e-05
4.309015155e-05
1.863284892e-06
1.461815773e-05
8.14117204e-10
7.96923194e-10
6.209367041e-07
1.098863442e-07
8.600413298e-07
5.467706316e-07
2.033022739e-06
2.686850642e-06
1.673408308e-06
1.381257813e-06
5.068686283e-07
5.109136434e-07
3.071145202e-07
3.355729186e-07
3.130481339e-07
5.32783043e-07
9.066756686e-07
6.684862011e-07
1.438072824e-06
2.473030321e-06
1.701561266e-06
4.97649498e-06
6.921819792e-06
4.508931695e-06
7.215872667e-06
7.612793622e-06
9.010354599e-06
7.206068729e-06
6.661679025e-06
1.457104889e-05
7.10093891e-06
9.306237479e-06
2.521983493e-05
1.963834762e-06
5.14056504e-06
2.841561674e-06
1.001804491e-05
1.630529044e-05
1.06314404e-05
2.346253422e-05
3.086645458e-05
2.295539981e-05
3.792716898e-05
4.409372424e-05
3.629659461e-05
4.901255737e-05
5.349121026e-05
4.817530825e-05
6.141429656e-05
7.524614471e-05
8.323864594e-05
8.413152138e-05
7.825978619e-05
8.641975829e-05
8.818010398e-05
6.827054702e-05
4.656980999e-05
5.982630904e-05
8.427205669e-05
4.356160218e-05
7.340609158e-05
7.255915293e-05
4.99222881e-05
0.0002291074393
0.0002618764286
0.0003555358937
0.0004134732812
0.0005135657817
0.0005588855927
0.0004435058572
0.0003237127518
0.0002876256969