/*--------------------------------*- C++ -*----------------------------------*\
| =========                 |                                                 |
| \\      /  F ield         | OpenFOAM: The Open Source CFD Toolbox           |
|  \\    /   O peration     | Version:  2.1.x                                 |
|   \\  /    A nd           | Web:      www.OpenFOAM.org                      |
|    \\/     M anipulation  |                                                 |
\*---------------------------------------------------------------------------*/
FoamFile
{
    version     2.0;
    format      ascii;
    class       surfaceScalarField;
    location    "2";
    object      phi;
}
// * * * * * * * * * * * * * * * * * * * * * * * * * * * * * * * * * * * * * //

dimensions      [1 1 -1 0 0 0 0];

internalField   nonuniform List<scalar> 
5536
(
4.458367449e-10
-9.166856873e-09
-7.993737081e-11
1.142068318e-10
-2.71935265e-10
-7.147372726e-11
6.040076115e-11
-4.235696415e-10
-6.059022559e-11
-4.374719149e-13
-9.739731697e-10
7.552844615e-11
-2.616404055e-10
-3.520162183e-09
-8.621660895e-08
-2.186560992e-08
1.087578862e-08
-8.838869924e-08
6.41431039e-09
9.144595013e-08
1.132339985e-08
-9.496547958e-08
-7.100975555e-09
5.769736455e-08
4.155759562e-09
-5.893346355e-08
2.853051749e-10
1.581241091e-08
-6.210054678e-09
-2.119888065e-08
-7.679222243e-11
3.208494887e-10
1.759207073e-10
-5.030309216e-10
-1.46138909e-10
6.562588818e-10
1.616717304e-10
-1.255580253e-09
-2.053132603e-10
1.480493911e-09
1.130091058e-10
-2.284133406e-09
-1.719487142e-10
3.268847468e-09
2.83184255e-10
-2.733473394e-09
-7.818800355e-11
6.065543327e-10
-1.511966329e-10
-5.02840187e-10
2.251738048e-10
5.931833405e-10
-4.108691572e-10
2.805352308e-10
-2.627078554e-10
-3.508409694e-10
-4.459515378e-10
3.815318356e-10
-3.692141549e-08
-1.588871793e-08
6.297911424e-08
8.094392416e-09
-4.990971072e-08
-1.662760921e-08
7.006769874e-08
1.637003846e-08
-6.739698423e-08
-1.669381898e-08
8.991068673e-08
1.641528343e-08
-9.13782811e-08
-1.472354119e-08
9.980436e-08
1.278895848e-08
-1.063979696e-07
-8.435412843e-09
5.924964678e-08
4.681008385e-09
-5.859955493e-08
7.635459437e-10
2.883486254e-08
-9.092486327e-09
-3.40477704e-08
3.764325146e-09
1.333247279e-09
2.745593291e-11
-5.260919225e-09
-3.382017201e-10
2.547543346e-09
5.688182633e-10
-4.366287265e-09
-6.402434176e-10
2.940852194e-09
4.835066856e-10
-3.008368063e-09
-4.515398433e-10
1.963658512e-09
2.41775944e-10
-1.357730862e-09
-6.681220717e-11
4.153950588e-10
-6.344744681e-11
-3.788630929e-10
1.512756092e-10
3.536990356e-10
-2.116827157e-10
-3.321102256e-10
2.530954166e-10
3.629330961e-10
-2.811332589e-10
-3.259737251e-10
2.989799203e-10
5.585706571e-10
-3.379650904e-10
-5.626373685e-10
5.025292743e-10
-1.46876686e-09
1.268650339e-09
-8.360165712e-10
4.925506353e-09
-1.094768053e-08
-4.619803869e-09
3.031440044e-08
1.098935366e-08
-2.648731936e-08
-1.341632289e-08
4.596320958e-08
1.456813577e-08
-4.198965301e-08
-1.506917304e-08
6.492585361e-08
1.582959568e-08
-6.247080668e-08
-1.702835755e-08
9.303856377e-08
1.787852501e-08
-9.471078546e-08
-1.768293505e-08
1.142824039e-07
1.680429475e-08
-1.222861507e-07
-1.219587674e-08
5.782811477e-08
5.684608454e-09
-5.905606835e-08
1.657630337e-09
3.122540348e-08
-7.982882231e-09
-2.219327919e-08
1.018716709e-08
1.380731891e-08
-9.332252092e-09
-1.844507145e-08
6.196430141e-09
6.866905849e-09
-2.145696163e-09
-1.171413442e-08
-6.387037751e-11
2.778994924e-09
3.605296545e-10
-2.588580057e-09
-2.506670455e-10
1.005377248e-09
1.345458417e-10
-8.422873612e-10
-4.868008846e-11
3.982702189e-10
-3.358266719e-11
-4.691742121e-10
1.353549018e-10
3.462320906e-10
-2.26458853e-10
-3.904244607e-10
2.72046445e-10
3.170540905e-10
-2.93082096e-10
-3.250838342e-10
2.961619128e-10
6.008392405e-10
-3.514059083e-10
-6.817956021e-10
4.726779827e-10
1.128076935e-09
-5.794862854e-10
-9.480329438e-10
6.97667158e-10
2.803072188e-09
-1.466803596e-09
1.268284713e-09
-9.076803855e-10
-2.032241254e-09
-3.985727369e-09
1.716581013e-09
5.35300252e-10
-8.122189493e-10
-1.699304173e-09
8.739731364e-09
3.466314791e-09
-6.413221215e-09
-5.993752518e-09
2.271390311e-08
8.888129758e-09
-1.904906651e-08
-1.121701658e-08
3.798113441e-08
1.26163188e-08
-3.406188335e-08
-1.361020951e-08
5.985160895e-08
1.519821e-08
-5.688672047e-08
-1.747580837e-08
9.59671833e-08
1.952685519e-08
-9.631161905e-08
-2.078569209e-08
1.289629447e-07
2.09181881e-08
-1.336256987e-07
-1.567655376e-08
6.494117498e-08
6.43853949e-09
-7.675181779e-08
2.510686626e-09
1.370405397e-08
-4.613688387e-09
-9.269866461e-09
6.253811788e-09
1.50287982e-08
-8.665383753e-09
-9.131398566e-09
1.217278087e-08
1.707991439e-08
-1.455371939e-08
-1.689768303e-08
9.428241979e-09
2.762544383e-09
-1.281127724e-09
-3.674343977e-09
-1.552787229e-10
8.035103348e-10
1.119347842e-10
-8.461916011e-10
-5.507931047e-11
5.98021807e-10
-2.205435145e-11
-7.966861009e-10
1.593466301e-10
4.658173596e-10
-3.74226952e-10
-6.097900721e-10
4.073763139e-10
3.474665694e-10
-4.130222794e-10
-4.076272652e-10
3.711209671e-10
8.514566027e-10
-4.779364826e-10
-1.155989182e-09
5.281854625e-10
9.462243549e-10
-5.387740764e-10
-1.079847518e-09
5.459211453e-10
1.138201038e-09
-5.811076473e-10
-1.038842862e-09
7.004860423e-10
2.639224206e-09
-1.017485583e-09
-2.061114365e-09
1.751509985e-09
-6.105400904e-09
-3.048166652e-09
8.794402879e-11
6.51792838e-11
-3.357926754e-11
-1.272805847e-10
3.546778654e-10
2.452623379e-10
-1.471909943e-10
-5.189527928e-10
4.218740062e-09
1.633810739e-09
-2.298623267e-09
-3.674287931e-09
1.548442343e-08
6.514346462e-09
-1.209916163e-08
-9.005018552e-09
3.053208906e-08
1.079598036e-08
-2.819659083e-08
-1.187676549e-08
5.339465039e-08
1.411657258e-08
-4.924691031e-08
-1.737249597e-08
9.550201926e-08
2.033907576e-08
-9.372928982e-08
-2.202377105e-08
1.371246368e-07
2.141153081e-08
-1.412651912e-07
-1.5531847e-08
9.300729736e-08
5.612182323e-09
-1.104905929e-07
4.487727603e-09
8.165645089e-09
-6.29716342e-09
-8.145573799e-09
4.239423833e-09
4.843945847e-09
-4.033586591e-09
-2.369649644e-09
5.428042262e-09
1.13885927e-08
-8.671810828e-09
-5.548297819e-09
1.112476362e-08
4.27961e-09
-5.835520194e-09
-3.104018089e-09
1.12768413e-10
9.271801958e-10
1.208693003e-10
-9.935138989e-10
-6.304709234e-11
1.060121424e-09
-3.773945763e-11
-1.361126973e-09
2.180262492e-10
1.012515794e-09
-5.805419416e-10
-2.197547576e-09
6.549322158e-10
5.986071121e-10
-8.526844661e-10
-1.270446605e-09
6.728167618e-10
1.627343857e-09
-8.010459924e-10
-2.37047042e-09
8.513590801e-10
1.309677376e-09
-8.19854134e-10
-1.64206973e-09
7.541647518e-10
1.045390402e-09
-6.888009194e-10
-1.10830072e-09
6.640719793e-10
1.68723904e-09
-7.71139542e-10
-1.432614234e-09
1.180013262e-09
4.771407118e-09
-2.099641407e-09
-3.974302236e-09
3.435785886e-09
-4.442723772e-09
-3.906089823e-09
1.190816033e-10
-1.090445241e-10
3.914723497e-11
7.441416993e-13
1.15133362e-11
1.632713575e-13
-1.316080952e-11
5.323732293e-11
4.46532539e-11
8.656035491e-12
-1.112276063e-10
8.201449193e-10
3.225456113e-10
-3.104256575e-11
-1.155123091e-09
9.050380928e-09
3.977109762e-09
-6.293022593e-09
-7.693810653e-09
2.81922609e-08
1.077290103e-08
-2.952209559e-08
-9.707366851e-09
4.443578139e-08
1.192250261e-08
-3.912202299e-08
-1.617494563e-08
9.127173252e-08
2.015832206e-08
-8.800867033e-08
-2.260274657e-08
1.471218871e-07
2.172380474e-08
-1.541277683e-07
-1.547361031e-08
1.257984145e-07
6.99099617e-09
-1.36829738e-07
2.245219652e-09
6.29107324e-09
-4.889567866e-09
-2.794610575e-09
-1.216849977e-10
1.055561129e-09
2.627533691e-10
-9.587656256e-10
-1.894802727e-10
1.994451181e-09
1.185518679e-10
-1.517923343e-09
-2.752298155e-11
1.668361851e-09
1.09097342e-10
-1.226944127e-09
-1.073131507e-10
9.966393248e-10
3.86974222e-11
-9.149784374e-10
7.136666324e-11
1.58882189e-09
-2.43664359e-10
-1.615509659e-09
6.766866542e-10
4.044109018e-09
-1.581510267e-09
-5.354431737e-09
2.721906032e-09
3.759117584e-09
-3.155091658e-09
-8.671756152e-09
2.99448512e-09
3.850231168e-09
-2.622086781e-09
-7.030324991e-09
2.228478323e-09
2.169053293e-09
-1.748184417e-09
-3.153253339e-09
1.333262779e-09
1.211202523e-09
-1.021742108e-09
-1.362143362e-09
8.09329536e-10
1.248295872e-09
-7.410332168e-10
-1.107422963e-09
9.311111142e-10
3.31252354e-09
-1.544366221e-09
-2.705941802e-09
2.650983876e-09
4.585095146e-09
-4.495004669e-09
3.950973834e-09
-3.79678155e-09
5.872199557e-11
-4.227329408e-11
-9.467269595e-09
-8.902062028e-09
8.537245776e-09
9.895001137e-09
-2.782972763e-09
-8.062859103e-09
5.098163537e-09
5.79311402e-09
-8.124988851e-10
-3.859609452e-09
2.262543059e-09
2.429047505e-09
-2.069322046e-10
-1.455052039e-09
8.394738501e-10
8.305285651e-10
8.655886537e-10
-3.268165583e-10
1.833786716e-10
-5.051838261e-09
2.605395654e-08
1.087029557e-08
-1.459014189e-08
-6.880426086e-09
3.359481158e-08
7.329481974e-09
-2.797959615e-08
-1.295847549e-08
8.370968223e-08
1.884874911e-08
-7.87666894e-08
-2.330632658e-08
1.612603147e-07
2.447507581e-08
-1.686310003e-07
-1.895074442e-08
1.448281307e-07
8.9916826e-09
-1.532884436e-07
-3.404250653e-09
4.463558918e-09
1.765709655e-09
-9.119787045e-09
-5.986754864e-10
9.327176309e-10
3.031790207e-10
-1.358630328e-09
-1.398434156e-10
1.475063193e-09
8.155957415e-11
-2.785787685e-09
1.539512287e-11
7.991193293e-10
1.97442995e-11
-4.619387365e-10
1.58727305e-12
7.502381593e-10
-1.085835542e-10
-5.476643708e-10
2.432295161e-10
1.409126942e-09
-4.365126174e-10
-1.051063463e-09
9.587568514e-10
5.325849845e-09
-2.151128114e-09
-4.098929081e-09
4.472013517e-09
1.303920082e-08
-8.007072354e-09
-1.325750355e-08
1.163052841e-08
1.268645091e-08
-1.260787892e-08
-1.858173567e-08
1.049736147e-08
5.113096241e-09
-6.823440324e-09
-8.527489682e-09
3.75145713e-09
1.597471872e-09
-1.990964469e-09
-1.984352514e-09
1.13986372e-09
1.002079925e-09
-7.987461438e-10
-9.391780755e-10
8.082367133e-10
2.154645176e-09
-1.172514507e-09
-1.747500666e-09
1.958735171e-09
3.997670091e-09
-3.055881728e-09
-3.400951272e-09
3.895085499e-09
2.546241517e-09
-2.78129939e-09
3.084575196e-09
-3.835043705e-09
-3.955905524e-11
1.077583553e-10
2.39427899e-11
-8.920979713e-11
-5.872771065e-09
-1.908596241e-09
3.54619321e-09
4.267407117e-09
-5.881241067e-09
-5.823762959e-09
5.433248677e-09
6.320821562e-09
-3.672481391e-09
-5.981820415e-09
4.540156913e-09
5.163318685e-09
-1.805791939e-09
-4.161415363e-09
2.356234492e-09
3.29218415e-09
-5.683481532e-10
-2.000603133e-09
8.044982598e-10
-1.981152565e-09
3.5685074e-09
1.937690137e-09
-8.801735601e-11
-5.516488251e-10
2.072275255e-08
-2.757140979e-09
-1.224639247e-08
-4.317347844e-10
7.372104386e-08
1.416640657e-08
-6.861327631e-08
-2.152760042e-08
1.762516936e-07
2.646607095e-08
-1.836747083e-07
-2.368159508e-08
1.627334447e-07
1.774141209e-08
-1.719755901e-07
-1.24113837e-08
1.622564252e-08
6.577262339e-09
-2.354509898e-08
-3.017719943e-09
2.82846657e-09
1.244190876e-09
-5.100548164e-09
-2.645752949e-10
7.027394677e-09
2.349548684e-10
-1.268125949e-08
2.454845933e-10
3.390901004e-10
-5.797703393e-11
-6.595870301e-10
5.60397344e-11
4.007184889e-10
-1.261704393e-10
-4.277564196e-10
2.12085013e-10
7.059901473e-10
-3.064092354e-10
-5.429878051e-10
5.943821141e-10
2.568621147e-09
-1.170158023e-09
-1.5171134e-09
2.340538493e-09
9.811393648e-09
-4.793515361e-09
-5.735009416e-09
9.368018346e-09
2.035615645e-08
-1.536514989e-08
-1.685673738e-08
1.927542578e-08
1.276343371e-08
-1.749404518e-08
-1.552575744e-08
1.115843483e-08
2.596166721e-09
-5.14612943e-09
-3.426916189e-09
2.03787117e-09
9.367935813e-10
-1.018025433e-09
-1.017535824e-09
8.821297243e-10
1.574105237e-09
-1.159064314e-09
-1.662425751e-09
1.770032941e-09
3.052243363e-09
-2.671331235e-09
-3.180351787e-09
3.580670493e-09
2.810690884e-09
-3.913182583e-09
-3.072352418e-09
3.312016069e-09
-1.104265823e-09
-2.354577491e-09
-9.137092027e-13
-5.988302055e-11
9.838465258e-12
-1.112119657e-11
-1.160886981e-12
2.468812688e-12
-1.949910219e-09
-3.632560044e-10
1.000285766e-09
1.323026625e-09
-4.366168058e-09
-2.610573444e-09
3.171268347e-09
3.83295045e-09
-4.733411174e-09
-4.70650516e-09
4.362110088e-09
5.114931139e-09
-1.038120273e-08
-3.847993586e-09
7.84996527e-09
-3.952757938e-09
-1.572975249e-09
7.780699583e-09
5.272577686e-09
-3.270366523e-09
-6.728287986e-11
8.815169666e-10
1.59888045e-09
-2.217653653e-10
5.595828786e-09
-1.034072809e-09
1.85088097e-10
-2.463978809e-09
6.122788463e-08
8.483463546e-09
-5.605597209e-08
-1.508871628e-08
1.894998749e-07
2.37236235e-08
-1.913789917e-07
-2.842414723e-08
1.794434769e-07
2.842553242e-08
-1.842956141e-07
-2.175091944e-08
2.916830662e-08
1.09375134e-08
-3.328848985e-08
-4.962661754e-09
6.944046717e-09
2.357744127e-09
-8.011895922e-09
-9.958624497e-10
1.585105697e-08
1.635567557e-10
-1.577500036e-08
1.009015421e-09
2.06431156e-09
-9.551434275e-10
-5.013137439e-09
7.053936014e-10
7.510610073e-10
-6.204020759e-10
-1.440964666e-09
5.065281837e-10
6.328767996e-10
-4.311706946e-10
-9.002281618e-10
5.376917397e-10
1.031694997e-09
-6.753189482e-10
-8.664451046e-10
9.600972965e-10
3.045896647e-09
-1.603075408e-09
-1.703126613e-09
3.11849595e-09
1.110937572e-08
-6.414205962e-09
-6.354897903e-09
1.157700282e-08
1.487927437e-08
-1.567832249e-08
-1.147448298e-08
1.462030864e-08
4.209856257e-09
-8.952604322e-09
-4.341586245e-09
3.869376677e-09
1.182168041e-09
-1.778139186e-09
-1.33545706e-09
1.439627986e-09
1.907747924e-09
-1.823209938e-09
-2.04363928e-09
2.646627506e-09
3.696579094e-09
-3.8505638e-09
-4.073090195e-09
5.195785708e-09
3.84564358e-09
-5.95441836e-09
-4.92171283e-09
5.26752979e-09
1.055070321e-09
-1.728369764e-09
1.874348175e-09
-3.422535422e-09
2.571453953e-12
-2.505293483e-12
-6.281622262e-12
5.250340187e-12
3.799754575e-12
-4.391421488e-12
-4.787864584e-12
-4.832283087e-10
-5.903534061e-11
2.246303302e-10
3.211528321e-10
-2.121310453e-09
-8.822289e-10
1.321829421e-09
1.692618183e-09
-3.66897348e-09
-2.600397946e-09
2.86672944e-09
3.43104374e-09
-5.22736025e-09
-4.02525983e-09
4.071570093e-09
4.167250917e-09
-7.522186248e-09
-3.511967136e-09
5.64927588e-09
1.622143449e-09
-6.055109026e-09
9.749211694e-10
1.378116921e-08
9.040623885e-10
-2.355623012e-09
-3.610104769e-09
-2.395577466e-09
8.731400242e-09
5.228925139e-08
-1.413234284e-08
-4.994043979e-08
1.057630248e-08
1.863470527e-07
8.974568409e-09
-1.706627933e-07
-2.904124614e-08
1.868519357e-07
3.55196077e-08
-1.879672702e-07
-2.695532243e-08
3.749300663e-08
1.286972215e-08
-4.36512365e-08
-5.57272401e-09
8.638539265e-09
2.794619731e-09
-9.298285419e-09
-1.459263924e-09
1.35648268e-08
-8.490276823e-11
-1.051815058e-08
1.13158336e-09
8.090413707e-09
-1.743014436e-09
-9.849012239e-09
2.166647634e-09
2.560402343e-09
-2.043203146e-09
-4.253120062e-09
1.577346871e-09
1.190533447e-09
-1.20526726e-09
-1.398038683e-09
1.002311351e-09
8.229946404e-10
-8.810119006e-10
-7.99202763e-10
8.234921541e-10
1.065168613e-09
-8.915117938e-10
-7.280789842e-10
1.2043183e-09
3.488841739e-09
-2.062611287e-09
-1.965707942e-09
3.97767911e-09
7.55041116e-09
-6.682017622e-09
-4.446197127e-09
8.010685819e-09
3.513269915e-09
-6.370605345e-09
-2.25803783e-09
3.64917366e-09
1.302298631e-09
-2.096021614e-09
-1.07216853e-09
1.711779704e-09
1.872801072e-09
-1.954533708e-09
-1.480402395e-09
2.623587608e-09
3.816567049e-09
-3.771215403e-09
-3.051064452e-09
5.458599557e-09
5.584338569e-09
-7.296279798e-09
-5.383744681e-09
8.027332646e-09
2.512841454e-09
-3.381226595e-09
3.790199151e-09
-6.50040329e-09
4.662505962e-12
1.161497875e-11
-5.40463482e-12
-1.05633505e-11
5.55621978e-12
8.867162803e-12
-1.006089986e-11
-4.079272992e-12
-9.926734294e-11
-2.27859338e-11
5.979027675e-12
1.210238177e-10
-7.685125857e-10
-3.783322954e-10
3.21578279e-10
8.55323237e-10
-2.074931927e-09
-1.566790627e-09
1.248882348e-09
2.491552281e-09
-3.272560709e-09
-3.600391866e-09
2.253157576e-09
4.840217689e-09
-3.955856757e-09
-6.131449991e-09
2.800126989e-09
7.028507392e-09
-1.185855463e-08
-9.801116533e-09
-2.961854341e-09
2.380396565e-08
1.407063629e-08
-3.061695662e-08
-1.467132114e-08
3.353066005e-08
4.132107286e-08
-3.146288061e-08
-2.757708752e-08
2.666012692e-08
1.420494617e-07
-8.225372423e-09
-1.089931532e-07
-2.454418485e-08
1.880869965e-07
3.655771754e-08
-1.865429289e-07
-2.86730511e-08
5.312940325e-08
1.600905891e-08
-6.610377825e-08
-7.838809267e-09
1.046443922e-08
3.891051844e-09
-1.264901222e-08
-1.862278988e-09
7.660470568e-09
1.409021284e-10
-5.821881717e-09
6.97969807e-10
1.029879204e-08
-1.541419918e-09
-9.918670686e-09
2.817430045e-09
6.446840143e-09
-3.645932259e-09
-8.696796178e-09
3.001018579e-09
1.498578914e-09
-2.101720083e-09
-1.515511794e-09
1.493621592e-09
7.419739105e-10
-1.138791922e-09
-6.171156042e-10
8.851045492e-10
5.188181425e-10
-7.101642783e-10
-3.569184149e-10
6.569726435e-10
1.161085797e-09
-8.199317428e-10
-7.132137483e-10
1.357631218e-09
2.330635693e-09
-2.12487077e-09
-9.886199944e-10
2.3990287e-09
1.177253657e-09
-1.921911142e-09
-5.3708532e-10
1.35053242e-09
7.64053171e-10
-1.057697288e-09
-4.899865875e-10
1.007509483e-09
1.056517366e-09
-1.135176281e-09
-7.159696591e-10
1.446552463e-09
2.199827347e-09
-2.038710752e-09
-1.522051658e-09
3.098839889e-09
4.606956294e-09
-4.737754435e-09
-3.657898257e-09
6.466736981e-09
4.190861876e-09
-7.060709743e-09
-4.688755984e-09
6.18931042e-09
2.423719496e-09
-3.644462977e-09
-5.103564433e-09
1.717587861e-11
4.181103871e-12
-4.921153088e-12
-1.550810989e-11
2.168522674e-11
1.279708324e-11
-5.124210584e-11
1.840802039e-11
9.951523267e-11
-7.069426566e-11
-1.793274525e-10
1.588231158e-10
2.174552246e-10
-3.301476832e-10
-5.447804793e-10
6.644250586e-10
2.878757308e-10
-1.251290538e-09
-1.216388616e-09
2.157417291e-09
2.193000873e-10
-3.427732464e-09
-2.407264835e-09
5.245753318e-09
3.234579269e-09
-8.524637112e-09
-8.370569601e-09
1.259809326e-08
6.646539379e-09
-1.513551163e-08
-8.163289545e-09
1.595016715e-08
9.526833885e-09
-1.431101226e-08
-4.243001177e-09
1.018220091e-08
1.060702351e-08
-5.009988504e-09
-2.768881243e-09
9.962100994e-09
7.711910816e-08
-1.283977987e-08
-4.876269571e-08
-1.092032986e-08
1.811099862e-07
2.6828019e-08
-1.688601367e-07
-2.620821605e-08
8.115776939e-08
2.045067332e-08
-9.580624649e-08
-1.292120372e-08
1.65562471e-08
6.82281963e-09
-2.305737397e-08
-2.991538161e-09
5.594080686e-09
7.514660674e-10
-7.524902778e-09
2.252013581e-10
9.11881244e-09
-1.10162165e-09
-8.172939988e-09
2.633529196e-09
1.039936027e-08
-4.453485303e-09
-1.099943497e-08
4.051661697e-09
1.500923169e-09
-2.448384908e-09
-1.358852684e-09
1.454983938e-09
3.936376698e-10
-6.939920242e-10
-5.684780098e-11
2.411400235e-10
2.033341214e-10
-9.098873252e-11
-1.392473846e-10
7.902633822e-11
4.316297212e-10
-1.27780156e-10
-2.438687786e-10
2.251225666e-10
2.908181284e-10
-2.941041689e-10
-1.21935822e-10
3.357483109e-10
2.470095482e-10
-3.462317433e-10
-1.246628073e-10
3.435972821e-10
2.963235458e-10
-3.584243723e-10
-1.969459414e-10
4.108588691e-10
4.910980448e-10
-5.142612461e-10
-3.824102834e-10
6.926895846e-10
1.065627797e-09
-9.96755256e-10
-7.909871759e-10
1.533124809e-09
2.700104436e-09
-2.451245603e-09
-1.800939963e-09
3.709311303e-09
4.415376334e-09
-4.87812083e-09
-3.152203651e-09
5.707436751e-09
4.797676601e-09
-4.40550406e-09
-6.363475929e-09
5.201619127e-13
-6.083069617e-13
1.979562831e-14
-2.201387485e-12
9.818086618e-12
-1.998724956e-11
1.335863974e-11
7.860300984e-11
-4.996183609e-11
-1.448164491e-10
1.222790261e-10
3.127344402e-10
-2.698039713e-10
-5.628083118e-10
5.361484115e-10
9.03601631e-10
-9.489605228e-10
-1.430328949e-09
1.508098608e-09
1.817238794e-09
-2.184826342e-09
-2.51056004e-09
2.928904474e-09
3.659844677e-09
-3.742487963e-09
-4.565218903e-09
4.98376369e-09
1.050737243e-08
-7.238591674e-09
-1.052269739e-08
8.857918544e-09
7.559589922e-09
-8.013845914e-09
-6.958056197e-09
5.402466412e-09
2.790378078e-09
-3.128542317e-09
-2.840578181e-09
2.128861765e-09
1.984361382e-09
-2.096420927e-09
-3.229248945e-09
3.609575901e-09
2.982444855e-08
-8.020315123e-09
-1.826056801e-08
7.768885824e-09
1.484118604e-07
7.781925222e-09
-1.211881406e-07
-1.928968551e-08
1.078566703e-07
2.230941222e-08
-1.163200622e-07
-1.874433328e-08
3.274527414e-08
1.266979793e-08
-4.527150699e-08
-7.097005169e-09
1.22592127e-08
3.106141538e-09
-2.006942644e-08
-6.430909857e-10
7.222802233e-09
-6.4942999e-10
-6.287416917e-09
1.874712198e-09
1.038480043e-08
-3.412783694e-09
-9.031471562e-09
3.368069409e-09
6.848187535e-10
-1.009560829e-09
-1.383807027e-13
1.658509408e-10
2.266844119e-11
-2.229773429e-11
-1.977158659e-11
1.100985051e-11
1.64410142e-10
-4.434160365e-11
-2.873315554e-10
9.122944042e-11
1.274618232e-10
-1.096978276e-10
-1.536940271e-10
9.229941703e-11
6.453690768e-11
-9.929831123e-11
-7.717320483e-11
9.671462211e-11
8.688111018e-11
-9.82697695e-11
-1.049349474e-10
1.247582246e-10
1.819629461e-10
-1.831019525e-10
-2.219155178e-10
2.650748209e-10
3.838287893e-10
-3.741270985e-10
-5.022202583e-10
5.434546519e-10
6.387768786e-10
-7.329749559e-10
-5.337848449e-10
9.267879499e-10
1.058852673e-09
-1.178546296e-09
-5.570187749e-10
1.412538409e-09
1.587957056e-09
-1.614952022e-09
-6.184330508e-10
1.985145463e-09
2.691284321e-09
-1.108854449e-09
3.899581508e-09
-2.73261384e-09
3.737463722e-18
-7.2346407e-18
1.385349287e-18
-1.412676551e-11
4.515023163e-11
-9.642579444e-11
6.857270435e-11
2.824601781e-10
-2.077464017e-10
-5.677074383e-10
5.06902351e-10
9.9447354e-10
-1.010565905e-09
-1.662594046e-09
1.714804262e-09
2.148291294e-09
-2.574289308e-09
-3.028540534e-09
3.517289996e-09
3.315329451e-09
-4.4604658e-09
-4.13230246e-09
5.331952405e-09
5.181205456e-09
-6.164359798e-09
-5.404144175e-09
7.32886394e-09
9.321195584e-09
-9.029717052e-09
-7.687509226e-09
9.816808657e-09
7.346891154e-09
-8.524584193e-09
-1.188971098e-08
6.879485121e-09
4.059398137e-09
-5.071631392e-09
-6.783067888e-09
4.631979039e-09
5.309367333e-09
-5.864993135e-09
-9.497399394e-09
6.611677423e-09
1.456114326e-08
-7.402387134e-09
-3.225425622e-08
9.825326343e-09
9.250819124e-08
-5.447689055e-09
-6.640126642e-08
-9.251014556e-09
1.211590469e-07
2.000291592e-08
-1.222865527e-07
-2.252728582e-08
5.906679996e-08
2.027743057e-08
-7.182244764e-08
-1.487348485e-08
3.022964302e-08
8.510664435e-09
-4.14639596e-08
-2.845966727e-09
5.429693909e-09
4.482635489e-10
-4.843842925e-09
7.542935226e-10
4.953676088e-09
-1.384593326e-09
-1.739500461e-09
-4.607245217e-12
1.159142585e-13
3.309938191e-14
-1.484539393e-13
-2.91307921e-14
3.39773788e-11
-2.421965365e-14
-5.357883704e-11
1.691814637e-11
4.883066638e-10
-9.960116333e-11
-6.8451391e-10
1.837634551e-10
3.135216721e-10
-2.18090649e-10
-7.440793235e-10
2.203298337e-10
9.967079251e-11
-2.00817063e-10
-1.403071622e-10
1.489778421e-10
1.453057246e-10
-1.263523089e-10
-1.513824516e-10
1.536667666e-10
2.865690733e-10
-2.038836418e-10
-3.471555852e-10
2.659098741e-10
8.243781391e-10
-3.827932082e-10
-1.547285914e-09
6.116413163e-10
3.823793616e-10
-6.136875316e-10
-2.3930482e-10
4.776730683e-10
3.150330721e-10
-4.261847333e-10
-2.633432446e-10
4.094337615e-10
3.068932068e-10
-4.156755817e-10
-3.108083858e-10
4.316995443e-10
3.988355349e-10
-2.250730239e-10
6.818011422e-10
-4.91225338e-10
1.624417978e-17
-3.539680539e-17
6.297301559e-18
-8.086752131e-11
2.106490247e-10
-4.943251427e-10
3.732347824e-10
1.105260824e-09
-9.90338285e-10
-2.001731984e-09
1.919321122e-09
2.587110213e-09
-3.052425398e-09
-3.7099563e-09
4.247795648e-09
3.980903406e-09
-5.381036559e-09
-4.838296235e-09
6.363190671e-09
4.834475553e-09
-7.134813861e-09
-5.281902954e-09
7.66717345e-09
5.3971771e-09
-7.98881804e-09
-5.334646792e-09
8.285045831e-09
6.489543757e-09
-8.874560405e-09
-6.579403821e-09
9.050097821e-09
2.390838319e-08
-8.434396469e-09
-3.107321525e-08
1.459974165e-08
1.17434477e-08
-1.344260876e-08
-2.035040731e-08
1.189504073e-08
1.792622754e-08
-2.255979415e-08
-2.88669768e-08
1.866790676e-08
6.284004343e-07
4.73506009e-07
4.573056813e-07
5.160466375e-07
4.490510896e-08
-2.131850198e-08
-2.821453437e-08
4.119509842e-09
1.193731914e-07
1.345956141e-08
-1.122167604e-07
-2.237587657e-08
8.15161734e-08
2.530124069e-08
-8.726085617e-08
-2.248314554e-08
5.284461151e-08
1.547016232e-08
-6.406749476e-08
-6.95631949e-09
4.516130738e-09
1.705918202e-09
-4.734952898e-09
-6.460729089e-10
4.172507358e-10
1.508318324e-10
-4.665929294e-10
-4.125333576e-11
1.742046079e-13
6.575253465e-14
-1.889043393e-13
-4.961476778e-14
7.410163783e-11
-3.630862463e-14
-8.904012782e-11
2.978158028e-11
8.875605603e-10
-2.126194689e-10
-1.051109949e-09
6.769591938e-10
1.694748626e-09
-1.280858546e-09
-2.876076045e-09
1.662068785e-09
3.38662614e-10
-1.255342571e-09
-1.243087237e-09
5.620952109e-10
1.836800248e-10
-3.226032085e-10
-1.696024643e-10
4.090961508e-10
8.139770095e-10
-5.920724369e-10
-4.324970666e-09
7.139474066e-10
1.605247669e-09
-2.929884264e-10
-1.890327433e-10
-2.331091751e-10
1.701260735e-11
3.57765458e-11
-4.365559066e-11
9.595835593e-12
3.147619257e-10
-1.715700271e-10
-5.647422427e-10
4.945380854e-10
4.937401953e-10
-8.850177042e-10
-1.00630975e-09
1.108223539e-09
2.743443601e-10
-4.428474797e-10
8.107540299e-10
-1.041410592e-09
6.92643123e-17
7.177680811e-17
-9.574618711e-17
-6.369390194e-10
1.146256751e-09
-2.467962826e-09
1.987212715e-09
3.310801808e-09
-3.694723874e-09
-4.91978541e-09
5.378219187e-09
4.851260775e-09
-6.766588728e-09
-5.696866683e-09
7.730494798e-09
5.365160167e-09
-8.287154825e-09
-5.316348296e-09
8.545733253e-09
5.323859741e-09
-8.619062356e-09
-4.829189876e-09
8.582575206e-09
5.184095267e-09
-8.507982505e-09
-4.780660306e-09
8.508880673e-09
9.04618156e-09
-8.303637563e-09
-1.238290646e-08
3.325903637e-09
1.950590067e-08
-1.715954277e-10
-6.806419609e-09
7.673494847e-09
3.073169376e-08
-7.296719339e-09
-1.456192066e-08
5.885330498e-09
2.954988847e-08
-3.185419686e-08
-9.718759528e-09
4.752418744e-08
1.355320595e-08
-3.520730621e-08
-9.757424157e-09
1.868592939e-08
1.752087391e-08
-1.168572811e-08
-1.211134917e-08
1.022667225e-08
1.00785498e-07
2.529355204e-10
-8.432514852e-08
-1.711569114e-08
8.930732771e-08
2.483778626e-08
-8.838159049e-08
-2.651805615e-08
7.514845835e-08
2.170279772e-08
-8.602584919e-08
-1.273120084e-08
6.379541629e-09
3.90044838e-09
-9.773670575e-09
-1.652331699e-09
7.603125103e-10
7.123830194e-10
-1.273440829e-09
-1.605692936e-10
1.880101338e-13
9.815695111e-14
-1.564496352e-13
-1.010678024e-13
1.034207269e-10
-4.727193225e-14
-1.158767309e-10
5.122788047e-11
1.096576007e-09
-3.52576715e-10
-9.985647074e-10
1.11470307e-09
3.323103807e-09
-2.294974585e-09
-3.062452823e-09
3.538067989e-09
2.719793874e-09
-3.983766191e-09
-3.584052024e-09
2.498360857e-09
1.813285407e-10
-6.098491766e-10
-2.645304894e-10
1.421900639e-10
1.433256602e-08
-5.695902623e-10
-2.441217328e-08
7.929442222e-09
5.042471655e-10
-3.14736126e-09
-4.220107279e-09
4.615978276e-10
1.642577622e-10
-2.776530135e-10
-1.562473282e-10
2.648586757e-10
7.351021945e-10
-3.95542942e-10
-4.434894895e-10
8.7977287e-10
2.02843012e-09
-2.133797743e-09
-1.943754027e-09
3.941735187e-09
1.037256575e-09
-2.092963778e-09
3.972708784e-09
-4.913972026e-09
-2.033378654e-15
3.802219521e-15
-4.291697883e-09
4.79483312e-09
-7.995310772e-09
7.597654356e-09
6.405181888e-09
-9.382800374e-09
-6.989274881e-09
1.009155832e-08
5.872733969e-09
-1.00028204e-08
-5.14192849e-09
9.333252758e-09
4.574174817e-09
-8.367239322e-09
-3.311765783e-09
7.441770794e-09
3.820908476e-09
-6.809349173e-09
-2.653861535e-09
6.577827769e-09
4.085187062e-09
-6.779048881e-09
-3.423060703e-09
7.461019987e-09
6.08548031e-09
-8.704527465e-09
-5.970735767e-09
1.033443808e-08
3.269056482e-09
-1.154435898e-08
-2.088951657e-09
1.918501868e-08
9.948164955e-09
-2.014765228e-08
-1.128985985e-08
1.809313448e-08
6.804311982e-09
-1.960347405e-08
-1.178543363e-08
1.573123489e-08
9.279786337e-09
-1.27462861e-08
-9.229547678e-09
1.115285807e-08
9.946207683e-09
-1.024193314e-08
-8.732902755e-09
1.005279467e-08
6.427929339e-08
-9.644190546e-09
-4.403256892e-08
-7.934803403e-09
8.510006546e-08
2.116907781e-08
-7.983488832e-08
-2.730940505e-08
9.646606523e-08
2.626647725e-08
-1.061797188e-07
-1.879223042e-08
1.463160659e-08
7.461456239e-09
-2.079180252e-08
-3.391714228e-09
2.049589361e-09
1.832885109e-09
-3.057412965e-09
-7.424259084e-10
6.007698815e-14
4.308939949e-13
9.321175891e-13
-1.03855589e-12
1.145355048e-10
5.808268648e-12
-9.710753242e-11
4.965673689e-11
7.831615344e-10
-3.11896622e-10
-5.052304041e-10
9.268068269e-10
2.318918953e-09
-1.853618979e-09
-1.388714325e-09
2.900495877e-09
3.27618927e-09
-3.75757755e-09
-2.16720367e-09
3.589399658e-09
4.178293132e-10
-1.578243839e-09
-8.350827024e-10
1.859520319e-10
1.859922725e-08
-8.901599428e-10
-8.243306936e-09
1.044146493e-08
1.32622868e-08
-1.85240767e-08
-1.42739832e-08
1.580185252e-08
2.852808338e-10
-4.751631433e-09
-2.519346714e-09
6.033158812e-10
1.740583363e-10
-2.410419065e-10
-2.602558842e-10
1.604958629e-10
5.837017752e-10
-3.319957133e-10
-4.276070235e-11
9.363580811e-10
6.898582038e-10
-1.053656544e-10
3.305000511e-09
-1.992063387e-09
-1.310166465e-08
7.913736108e-09
-6.925249463e-09
1.226284177e-08
5.943736519e-09
-1.093194085e-08
-4.211749026e-09
9.300661507e-09
3.658728085e-09
-7.541774514e-09
-2.058481127e-09
5.801003713e-09
2.020087128e-09
-4.343272983e-09
-1.29512868e-09
3.454829522e-09
1.982603891e-09
-3.257370055e-09
-2.468326328e-09
3.74819179e-09
3.514767271e-09
-4.895716236e-09
-5.029858762e-09
6.665749366e-09
6.634848582e-09
-9.006412309e-09
-8.250097992e-09
1.178349166e-08
1.044607736e-08
-1.46520991e-08
-1.138389065e-08
1.737711993e-08
1.30933251e-08
-1.855810487e-08
-1.248448194e-08
1.806313797e-08
1.151344011e-08
-1.617636208e-08
-1.038393089e-08
1.364417575e-08
8.657894833e-09
-1.134812324e-08
-7.651350531e-09
9.808202853e-09
7.546612315e-09
-9.037576105e-09
-6.227111886e-09
8.737584902e-09
2.654579246e-08
-9.140171745e-09
-1.441380633e-08
1.353355959e-09
7.278697938e-08
1.607689568e-08
-6.401259538e-08
-2.582282045e-08
1.149258484e-07
2.910211367e-08
-1.226009156e-07
-2.406233051e-08
2.825876826e-08
1.181700939e-08
-3.687116334e-08
-5.946678928e-09
4.298854851e-09
3.720348212e-09
-5.430884361e-09