/*--------------------------------*- C++ -*----------------------------------*\
| =========                 |                                                 |
| \\      /  F ield         | OpenFOAM: The Open Source CFD Toolbox           |
|  \\    /   O peration     | Version:  2.1.x                                 |
|   \\  /    A nd           | Web:      www.OpenFOAM.org                      |
|    \\/     M anipulation  |                                                 |
\*---------------------------------------------------------------------------*/
FoamFile
{
    version     2.0;
    format      ascii;
    class       volVectorField;
    location    "2";
    object      Uf;
}
// * * * * * * * * * * * * * * * * * * * * * * * * * * * * * * * * * * * * * //

dimensions      [0 1 -1 0 0 0 0];

internalField   nonuniform List<vector> 
2828
(
(-0.6755857509 0 0.05318308527)
(-0.3487272232 0 -0.1028899022)
(-0.4306752239 0 -0.09305746552)
(-0.9120592611 0 0.1549708065)
(-0.6361713034 0 0.01429838905)
(-1.168172799 0 -0.2550584227)
(-1.30224401 0 -0.2106910577)
(-1.446702128 0 -0.1539591919)
(-1.482973991 0 -0.165362514)
(-1.022825055 0 0.144567727)
(-0.3741905546 0 -0.1531105776)
(-0.447560498 0 -0.1087344109)
(-0.5822514184 0 0.006441026656)
(-0.7089858415 0 -0.04956253234)
(-0.5056340525 0 0.1267480475)
(-0.5036658143 0 0.2853650377)
(-0.5289125325 0 0.3776488907)
(-0.8851996346 0 -0.3267049107)
(-0.9943594198 0 -0.2969332513)
(-1.111348511 0 -0.2525213066)
(-1.264957899 0 -0.2189174248)
(-1.423685191 0 -0.1713095895)
(-1.48081915 0 -0.1647372815)
(-1.235571544 0 0.2498056902)
(-0.5045345238 0 -0.08157761769)
(-0.5528670604 0 -0.1120743689)
(-0.5911243998 0 -0.108446861)
(-0.7523894327 0 -0.07339902532)
(-0.6274486938 0 0.1418422842)
(-0.589058944 0 0.3797700102)
(-0.5720989565 0 0.4654842886)
(-0.5698720282 0 0.4904954545)
(-0.8776136191 0 0.5723725548)
(-0.6989860396 0 -0.2907333255)
(-0.8136346931 0 -0.3088166117)
(-0.9153352748 0 -0.2856574361)
(-1.041706176 0 -0.2506239856)
(-1.212499237 0 -0.2264516608)
(-1.403526621 0 -0.2014030113)
(-1.481082591 0 -0.1755604767)
(-1.501808635 0 0.4169638929)
(-1.078326794 0 0.5395296205)
(-0.7397069614 0 0.03811194816)
(-0.6510430191 0 -0.1174457291)
(-0.7471967238 0 -0.08229900009)
(-0.7087980482 0 0.1384450721)
(-0.6471620787 0 0.4640278793)
(-0.6084737967 0 0.5706088424)
(-0.7775842291 0 0.5552103616)
(-1.046398487 0 0.605508101)
(-1.17557056 0 0.6964152579)
(-1.216352034 0 0.7699401154)
(-0.4966921813 0 -0.1820171562)
(-0.6433308072 0 -0.270980361)
(-0.7467253045 0 -0.3038258479)
(-0.8384850354 0 -0.2756785286)
(-0.9651621205 0 -0.2454149466)
(-1.153830563 0 -0.2316031078)
(-1.370145961 0 -0.2183419731)
(-1.478815927 0 -0.1401864416)
(-1.444513391 0 0.5331453278)
(-1.298639884 0 1.0513854)
(-0.9695662392 0 0.7382584968)
(-0.6646961761 0 -0.08804897412)
(-0.7479222265 0 -0.08642792457)
(-0.6450536319 0 0.1083041863)
(-0.6124107147 0 0.4734519686)
(-0.6306607353 0 0.6971091722)
(-1.148141168 0 0.641521325)
(-1.230839563 0 0.6772892304)
(-1.166568484 0 0.7056607898)
(-1.129105402 0 0.7499867732)
(-1.039217094 0 0.7477259895)
(-1.296764175 0 -0.9146219812)
(-0.5397958879 0 -0.09217793484)
(-0.5749984989 0 -0.2505589982)
(-0.6750050997 0 -0.2941079749)
(-0.7594332343 0 -0.2637784081)
(-0.8763480628 0 -0.2348733823)
(-1.079626232 0 -0.2276912285)
(-1.318071844 0 -0.1891719784)
(-1.448433742 0 -0.0296470529)
(-0.9264843778 0 0.3480957332)
(-1.007819027 0 1.157306845)
(-0.9444356998 0 1.185645681)
(-0.7120304984 0 0.1517754883)
(-0.7310288325 0 -0.07787050253)
(-0.6087866661 0 0.100867895)
(-0.5091698986 0 0.2146534425)
(-0.6775456648 0 0.760195401)
(-1.469902499 0 0.7345292682)
(-1.327657959 0 0.7535204629)
(-1.158650428 0 0.7432472336)
(-1.016827306 0 0.7218249073)
(-0.9339548631 0 0.7188197542)
(-0.657155575 0 0.5577004954)
(-0.3977741158 0 0.5663593448)
(-0.7710240443 0 -0.1389546729)
(-0.3940110798 0 -0.3078117492)
(-0.4584774699 0 -0.1942262957)
(-0.607595756 0 -0.2832477076)
(-0.7696498867 0 -0.2750547618)
(-0.768735112 0 -0.2166350541)
(-0.9843133897 0 -0.2163624981)
(-1.272266309 0 -0.1607608993)
(-1.413585856 0 -0.02915423065)
(-0.6503016071 0 0.0518926122)
(-0.5131035623 0 -0.09259217643)
(-0.6273939607 0 -0.02178628381)
(-0.5981260577 0 -0.08315396119)
(-0.6924511361 0 0.004936881208)
(-0.7101018205 0 0.2406314733)
(-0.74447124 0 0.4072476131)
(-0.780416582 0 0.5240647709)
(-1.147913469 0 0.7108098167)
(-1.255801186 0 0.7822058859)
(-1.116189749 0 0.7702104231)
(-0.912147236 0 0.6977910213)
(-0.8143246491 0 0.6855864692)
(-0.6090208257 0 0.5649297851)
(0.7776270568 0 -0.4742361547)
(0.9297055726 0 1.065902122)
(0.8338095546 0 0.9780710831)
(0.6746295354 0 0.7993167893)
(0.4690565748 0 0.5612214213)
(-0.08727068126 0 0.04134123418)
(-1.023803565 0 -0.3667001506)
(-0.636820697 0 -0.169165618)
(-0.8633659635 0 -0.1997105981)
(-1.21357767 0 -0.1618385254)
(-1.372671932 0 -0.01971607756)
(-0.7895271338 0 -0.4426128014)
(-0.5127926816 0 -0.09325394719)
(-0.6223274421 0 -0.009242113194)
(-0.556798808 0 -0.049726444)
(-0.6757221194 0 0.166312592)
(-0.7966847762 0 0.4339363272)
(-1.066432598 0 0.7773230969)
(-1.145221283 0 0.9282942462)
(-1.128218551 0 0.9298160487)
(-1.089700166 0 0.8327874719)
(-1.034296935 0 0.7800935968)
(-0.8051513577 0 0.6762720217)
(-0.7048777461 0 0.667828844)
(-0.6056995456 0 0.622746244)
(-0.4329535761 0 0.4850391558)
(0.3325743353 0 -1.130893646)
(0.8210440515 0 0.9208215442)
(0.7892593373 0 0.9030668979)
(0.7076799864 0 0.8224490627)
(0.5776301275 0 0.7021804499)
(0.1029564796 0 0.2260138264)
(-1.128375608 0 -0.4524810261)
(-0.443098806 0 0.1144289869)
(-0.7122339691 0 -0.1607223442)
(-1.147155437 0 -0.1628214366)
(-1.368697828 0 -0.1322812755)
(-1.164256459 0 -0.5804416016)
(-0.8660065388 0 -0.2111942468)
(-1.142841474 0 0.004468349626)
(-0.5704484977 0 -0.0114075407)
(-0.728552227 0 0.329681209)
(-1.008538134 0 0.6838294723)
(-1.316777165 0 1.072137591)
(-1.456114861 0 1.320364478)
(-1.355780022 0 1.276536872)
(-1.160215345 0 1.059686207)
(-0.920169137 0 0.7837120047)
(-0.6851415889 0 0.6688485506)
(-0.6226460288 0 0.7062070074)
(-0.5988991139 0 0.7218575945)
(-0.4946872897 0 0.6077462368)
(-0.370027002 0 0.4846792855)
(0.4893159823 0 -2.314614736)
(-0.1086569199 0 0.02242378153)
(0.5963157051 0 0.6658090833)
(0.6720086859 0 0.7584728254)
(0.6582710202 0 0.7557498301)
(0.5449505965 0 0.2306515103)
(0.5697009071 0 -1.05003111)
(1.15429278 0 -0.4710325072)
(-0.1480668183 0 -0.04411453996)
(-0.5222124017 0 -0.1022206666)
(-1.068811396 0 -0.1479200987)
(-1.399413375 0 -0.2407647649)
(-1.372601671 0 -0.6196313787)
(-1.235129709 0 -0.2731472379)
(-1.523160121 0 0.03742099127)
(-0.8725049505 0 0.1209796255)
(-0.8615406836 0 0.5208043647)
(-1.541574148 0 1.128996557)
(-1.483739393 0 1.30713741)
(-1.465679333 0 1.478840051)
(-1.455163823 0 1.556309969)
(-1.240312288 0 1.303194114)
(-0.8871265544 0 0.8912541649)
(-0.6271023605 0 0.7419964575)
(-0.6544860424 0 0.8584060225)
(-0.6709974896 0 0.9208038903)
(-0.564665872 0 0.7958259657)
(-0.3670940669 0 0.5460391784)
(-0.2994512506 0 -0.6387552735)
(-0.4687600189 0 -0.3823613359)
(0.3533756114 0 0.3954256769)
(0.503082752 0 0.5640292097)
(0.56065658 0 0.6329901021)
(0.5572060451 0 0.626895227)
(0.5453527963 0 0.3048991389)
(1.525531489 0 -0.2001774057)
(0.08168929731 0 0.2235554737)
(-0.3460213412 0 0.1276714031)
(-0.9632769662 0 -0.1056712586)
(-1.401700769 0 -0.2878324129)
(-1.421147581 0 -0.6087265894)
(-1.328738336 0 -0.2931759365)
(-1.596416906 0 0.07532361471)
(-1.255272962 0 0.260226871)
(-0.9638565763 0 0.5073869804)
(-1.57068662 0 1.2472519)
(-1.559389186 0 1.544901239)
(-1.346479266 0 1.551820528)
(-1.268479496 0 1.551604042)
(-1.128379526 0 1.340770831)
(-0.8248540592 0 0.9454951279)
(-0.668045826 0 0.8342965568)
(-0.7254418118 0 0.9638685427)
(-0.7629702629 0 1.067566992)
(-0.668886064 0 0.989578289)
(-0.4325858418 0 0.7031749073)
(-0.2807834941 0 -0.7371649436)
(-0.2751953604 0 -0.2529291213)
(0.1674844532 0 0.2181575913)
(0.3108226478 0 0.3623785019)
(0.4063849071 0 0.4955064004)
(0.4084239341 0 0.5718447698)
(0.3338380261 0 0.5674805423)
(-0.06428703814 0 0.2939651214)
(-0.2403486869 0 0.5246608238)
(-0.2495713141 0 0.1992218381)
(-0.8218835404 0 -0.05185541661)
(-1.340389866 0 -0.2593141397)
(-1.405535089 0 -0.5512525849)
(-1.313839589 0 -0.3770239571)
(-1.481881387 0 0.06907088888)
(-1.321669873 0 0.3240786259)
(-1.069451863 0 0.4445277789)
(-1.206743589 0 1.034158654)
(-1.463044709 0 1.761574994)
(-1.27351156 0 1.736411675)
(-0.9758860995 0 1.3115881)
(-0.7972347642 0 0.9911103569)
(-0.648752881 0 0.771281918)
(-0.7002697637 0 0.8851253548)
(-0.7263923126 0 0.9794167052)
(-0.7347519232 0 1.055610157)
(-0.6539885123 0 1.000797131)
(-0.4435957233 0 0.7131299837)
(-0.3059948888 0 0.5095937795)
(0.04869072383 0 -0.4131719901)
(-0.1864873917 0 0.189847167)
(-0.1751505138 0 0.2419082566)
(-0.2025910149 0 0.3030949357)
(-0.2325213921 0 0.4016658485)
(-0.194755991 0 0.4941623899)
(-0.2649619971 0 0.4522145068)
(-0.3357467579 0 0.4363782742)
(-0.4754537717 0 0.5004804168)
(-0.0472767155 0 -0.01277013079)
(-0.6518427547 0 0.0379722157)
(-1.217142806 0 -0.1788285476)
(-1.395254626 0 -0.4640406092)
(-1.294685696 0 -0.4699081285)
(-1.25207199 0 -0.06875662392)
(-1.247671586 0 0.3285916187)
(-1.092057949 0 0.4116902936)
(-0.6896456919 0 0.6596537691)
(-0.6564066241 0 0.73152828)
(-0.6308914832 0 0.3719503181)
(-0.4912800747 0 0.3242230458)
(-0.5269093051 0 0.5256704184)
(-0.7769873459 0 0.9526392266)
(-0.7889778567 0 1.063443823)
(-0.7064550335 0 1.023935087)
(-0.6195209743 0 0.9577118366)
(-0.5358872097 0 0.8517198948)
(-0.4253185167 0 0.6127369872)
(-0.358656115 0 0.4914418861)
(-0.1318466221 0 -0.01595504652)
(-0.1839863808 0 0.1684355061)
(-0.1911283297 0 0.2648516191)
(-0.2227393013 0 0.3272739639)
(-0.2840315588 0 0.4198688417)
(-0.3325068801 0 0.4965099138)
(-0.3778834795 0 0.5434538455)
(-0.4985442777 0 0.4376378551)
(-0.5341300218 0 0.3973926387)
(-0.562214349 0 0.4046252388)
(-0.5832376265 0 0.6471389589)
(-0.4840510957 0 0.2867475124)
(-1.045627386 0 -0.09403974078)
(-1.376442877 0 -0.3738902733)
(-1.315390836 0 -0.4811775762)
(-1.212270769 0 -0.2380216882)
(-1.121341634 0 0.2485973265)
(-1.033131481 0 0.3440234358)
(-0.604120352 0 0.3236634895)
(-0.8218336913 0 0.3735988052)
(-0.6683769118 0 0.3836129609)
(-0.5271976949 0 0.2868370993)
(-1.184074898 0 1.407005965)
(-1.022843802 0 1.467085889)
(-0.817783173 0 1.260890843)
(-0.5904401158 0 0.9699898728)
(-0.4295849089 0 0.7391027253)
(-0.3917993404 0 0.5967024559)
(-0.4234525701 0 0.5343016779)
(-0.4048187352 0 0.5399052353)
(-0.1896623724 0 -0.09770038678)
(-0.2404492818 0 0.3218789789)
(-0.2495961185 0 0.370647524)
(-0.3193773377 0 0.477374298)
(-0.3677048004 0 0.550952695)
(-0.393596699 0 0.5979427552)
(-0.4163975388 0 0.6083785593)
(-0.4461051894 0 0.4951723807)
(-0.5271272082 0 0.4707639194)
(-0.5129268437 0 0.5478547079)
(-0.5704633179 0 0.6738319904)
(-0.6727710296 0 0.6665849132)
(-0.8278534334 0 -0.001137047234)
(-1.33544958 0 -0.2951706933)
(-1.343281037 0 -0.4630657894)
(-1.288451658 0 -0.3138158885)
(-0.9643952334 0 0.08229645848)
(-0.8784598929 0 0.2287256293)
(-1.214703762 0 -0.28983366)
(-0.5433078815 0 0.3542377115)
(-0.575310327 0 0.309498082)
(-0.503655543 0 0.2525336063)
(-0.3683605577 0 1.351016279)
(-0.2032100382 0 0.6626481647)
(-0.1277312331 0 0.3980008419)
(-0.1651322916 0 0.2303772744)
(-0.150059644 0 0.2186758144)
(-0.4292303807 0 0.456642183)
(-0.4642726817 0 0.6056666191)
(-0.3849020657 0 0.6386866062)
(-0.2683034817 0 -0.2082619228)
(-0.2865305944 0 0.4266002184)
(-0.3667462925 0 0.5515507219)
(-0.4116715186 0 0.6210533191)
(-0.4305757385 0 0.6555817518)
(-0.4341551805 0 0.6700213491)
(-0.4369191539 0 0.6703663854)
(-0.438586599 0 0.6384892401)
(-1.260916222 0 0.5223294176)
(-0.7101791717 0 0.6210022807)
(-0.9217837708 0 0.8390350783)
(-0.9830867869 0 0.04159589505)
(-0.6029551722 0 0.1835088518)
(-1.25680972 0 -0.2285284915)
(-1.347232096 0 -0.446823815)
(-1.358687446 0 -0.3677666519)
(-0.803910547 0 -0.2503374125)
(-0.4335958815 0 -0.2811712336)
(-1.410331536 0 -0.4968496391)
(-1.113211547 0 0.4907948881)
(-0.5673465452 0 0.4175780016)
(-0.4861246842 0 0.4568665569)
(-0.2208675444 0 0.3269033862)
(-0.1353284752 0 0.2780503216)
(-0.1638858302 0 0.2070673607)
(-0.09267342378 0 0.0320767915)
(-0.1774626811 0 -0.4680211154)
(-0.4939772858 0 0.7713210276)
(-0.3441526941 0 0.8543518435)
(-0.2615613592 0 0.9085447597)
(-0.1919103109 0 0.05185118054)
(-0.4264544846 0 0.6432868766)
(-0.4619321168 0 0.7013626698)
(-0.4673899832 0 0.7194896072)
(-0.4622148337 0 0.7224352384)
(-0.4562462127 0 0.7233442192)
(-0.4661197989 0 0.7374269886)
(-0.5554568386 0 0.6688897471)
(-1.759114177 0 0.2912658393)
(-0.9090040533 0 -0.2743452989)
(-0.7891739337 0 1.658997985)
(-0.6954256462 0 1.069034317)
(-0.5748319311 0 0.5285336664)
(-1.107114019 0 -0.1415909535)
(-1.320622545 0 -0.4173372895)
(-1.412943453 0 -0.3915922168)
(-0.8525197655 0 -0.583693304)
(-0.4804089836 0 -0.3765442464)
(-1.260361288 0 -0.8742515893)
(-0.949223525 0 0.5137231458)
(-0.5620010096 0 0.5469859814)
(-0.5793250163 0 0.6224540806)
(-0.4629909793 0 0.4930774005)
(-0.1539176365 0 0.1474437206)
(-2.561212876 0 1.045327909)
(-0.2717320697 0 0.1880549849)
(-0.1270151059 0 0.1117461186)
(-0.4813293154 0 0.4701108597)
(-0.3446154095 0 0.5874253868)
(-0.1444798506 0 0.5712891461)
(1.56896451 0 0.2045030381)
(-0.5097125974 0 0.7820758983)
(-0.4997058343 0 0.7830723179)
(-0.4794722638 0 0.765762782)
(-0.4646603658 0 0.7517673564)
(-0.4761226618 0 0.7866551321)
(-0.5293954987 0 0.8955602995)
(-0.6264214519 0 1.051789413)
(0.4736526389 0 0.8970306675)
(-0.3967487534 0 1.011262933)
(-0.7259988584 0 0.9200376549)
(-0.6838750591 0 0.8158118916)
(-0.6129073748 0 0.7607874987)
(-0.8424089036 0 0.03544489034)
(-1.256522729 0 -0.3668613546)
(-1.426949852 0 -0.3821510439)
(-1.076251224 0 -0.6762691514)
(-0.6487685741 0 -0.4669545627)
(0.7927718733 0 -0.2445069988)
(-0.6658315686 0 0.1113706104)
(-0.5049176062 0 0.5908106413)
(-0.5266528089 0 0.6838730348)
(-0.464857697 0 0.6088503356)
(-0.1791439558 0 0.1517429307)
(-3.377031244 0 1.598240731)
(-1.658265446 0 2.0128396)
(-0.2057836554 0 0.2711712849)
(-0.6676962328 0 0.5396566801)
(-0.4124263423 0 0.5717324245)
(-0.2711921704 0 0.636420438)
(-0.5150432474 0 0.8232081547)
(-0.4963712977 0 0.7980456551)
(-0.459456013 0 0.7490883848)
(-0.4492291148 0 0.7449821857)
(-0.5275241847 0 0.9063111512)
(-0.6415143319 0 1.110506865)
(-0.7302076644 0 1.238005148)
(-0.7867193324 0 1.25151482)
(-0.7994336729 0 1.136650042)
(-0.7494528711 0 0.9435252526)
(-0.6498189984 0 0.770340547)
(-0.5666594363 0 0.706872901)
(-0.5930830282 0 0.2873537895)
(-1.152003994 0 -0.304821926)
(-1.392228935 0 -0.3610008969)
(-1.271159148 0 -0.7276311653)
(-0.8327129251 0 -0.6017990452)
(-0.4944682176 0 -0.3718726396)
(-0.5356517028 0 0.01195441545)
(-0.3898244271 0 0.6076575128)
(-0.3941925941 0 0.6272142834)
(-0.3285273193 0 0.4171095448)
(-0.3626154074 0 -1.958399003)
(-0.9544283544 0 2.182026961)
(-0.5814978951 0 4.73232952)
(-0.3960985691 0 4.093534543)
(0.1541462241 0 2.850353239)
(0.3592707725 0 2.778195738)
(0.2639443616 0 2.263201666)
(-0.5209547378 0 0.8547977768)
(-0.4674023263 0 0.7795122744)
(-0.4149879866 0 0.7043112994)
(-0.6477763921 0 0.951919956)
(-0.8277345781 0 1.122210516)
(-0.8792229137 0 1.202442143)
(-0.8738855142 0 1.223534903)
(-0.8415956665 0 1.173318181)
(-0.7823384514 0 1.02860368)
(-0.6868844517 0 0.818699353)
(-0.578300417 0 0.642710038)
(-0.4945158228 0 0.5540375946)
(-0.4718538969 0 0.4460732999)
(-0.9893666133 0 -0.2274751835)
(-1.315485888 0 -0.3355761199)
(-1.406917141 0 -0.7748052117)
(-0.9946203418 0 -0.8544545732)
(-0.6847680132 0 -0.6128977845)
(-0.4447779513 0 -0.3747032885)
(-0.5286659631 0 0.9933940919)
(-0.1612039734 0 0.1293561884)
(-0.1164105958 0 0.06163676135)
(-0.11790888 0 0.06736170186)
(2.326863882 0 1.266403981)
(0.5727181405 0 0.6703818355)
(-0.1244272722 0 0.09553157646)
(1.297654508 0 1.165992133)
(0.865999725 0 1.343233265)
(0.6045969217 0 1.285425686)
(-0.02172756094 0 0.04335139874)
(-0.2044715863 0 -0.08076739721)
(-0.8280011761 0 0.988115517)
(-1.04541161 0 1.213532599)
(-1.083424722 0 1.267104772)
(-1.040497005 0 1.234985976)
(-0.9486191336 0 1.137278884)
(-0.8266137569 0 0.9796518384)
(-0.6952125662 0 0.7874783717)
(-0.5793101953 0 0.6179521836)
(-0.4897951594 0 0.5008643114)
(-0.4166265765 0 0.4190287808)
(-0.4019501125 0 0.4145541649)
(-0.7151833448 0 0.06537397928)
(-1.209216413 0 -0.3146912091)
(-1.467101613 0 -0.8645449747)
(-0.8760972034 0 -1.383647786)
(-0.676467529 0 -1.245015529)
(-0.9208621685 0 -1.098300335)
(0.3177068478 0 0.06688023722)
(-0.02027875311 0 0.05835313308)
(-0.103289843 0 0.05831554787)
(-0.1131427925 0 0.06324851591)
(0.7192717636 0 0.4467191721)
(-0.1067679556 0 0.08306437952)
(-0.1102193097 0 0.09547072732)
(1.035328008 0 0.7166164677)
(0.7574350583 0 0.7568067634)
(0.1027859791 0 -0.01000867251)
(-1.238673571 0 1.403193767)
(-1.266273146 0 1.448695537)
(-1.198558651 0 1.38375894)
(-1.059959241 0 1.22881764)
(-0.8722277922 0 0.9966157101)
(-0.6973599031 0 0.7604133252)
(-0.5793152436 0 0.5967378841)
(-0.4987474192 0 0.496063216)
(-0.427771025 0 0.4217107584)
(-0.3652040582 0 0.3629966587)
(-0.5260826562 0 0.4226315428)
(-0.7783737044 0 0.6184585728)
(-1.054592772 0 -0.3335060049)
(-1.508979163 0 -0.9408735997)
(-0.6250926838 0 -1.868551184)
(0.4239227531 0 -2.656549134)
(0.6149657674 0 -1.82525949)
(0.1923847841 0 -0.2246198946)
(-0.1653361817 0 0.01044052268)
(-0.1162220296 0 0.05550001904)
(-0.1106919792 0 0.06123415704)
(-0.1070914276 0 0.07699797869)
(-0.1013896901 0 0.08676301907)
(-0.09767347873 0 0.09307673412)
(0.6706178096 0 0.4509381441)
(0.641088587 0 0.5487349817)
(0.03129268616 0 -0.8414476571)
(-1.448748985 0 1.65216951)
(-1.363708341 0 1.577726221)
(-1.18717544 0 1.384938293)
(-0.9109479011 0 1.047229672)
(-0.6859514054 0 0.7329357699)
(-0.5890936553 0 0.5873006367)
(-0.5283496284 0 0.5144223468)
(-0.4596198658 0 0.4460359982)
(-0.3817586538 0 0.3763826661)
(-0.4200191051 0 0.367392469)
(-0.7386553656 0 0.5102911444)
(-0.8911630488 0 0.6883249361)
(-0.8466649242 0 -0.2560660114)
(-1.635364014 0 -0.877956947)
(-1.550143142 0 -1.109074493)
(-0.854652348 0 -1.198841722)
(0.7688326843 0 -1.64420233)
(-0.4777022298 0 -0.3111162523)
(-0.1436166895 0 -0.03955906202)
(-0.1283832298 0 0.03384695557)
(-0.1116606336 0 0.05936615969)
(-0.1090915811 0 0.08294801868)
(-0.1008232523 0 0.09348469984)
(-0.09276684075 0 0.1001681919)
(0.2610223378 0 0.2601855571)
(-1.487868956 0 1.745122336)
(-1.314765441 0 1.547255372)
(-0.8465898688 0 0.9826176989)
(-0.6310543829 0 0.6459572854)
(-0.6237267828 0 0.6047667769)
(-0.5872158038 0 0.5662354178)
(-0.5135235085 0 0.4956732705)
(-0.4177098303 0 0.404172277)
(-0.3346731956 0 0.3335113212)
(-0.6702505629 0 0.4712696819)
(-0.8938394917 0 0.5803984131)
(-0.9631990702 0 0.6811179599)
(-0.7957590397 0 0.01293724022)
(-1.646778093 0 -0.8857771033)
(-1.700548958 0 -1.169556994)
(-1.659962086 0 -1.112069209)
(-1.440259204 0 -0.9610597956)
(-0.8285146228 0 -0.5536340714)
(-0.1423101583 0 -0.08436680232)
(-0.1540509721 0 -0.02876093519)
(-0.1240505425 0 0.05979256916)
(-0.1181596124 0 0.09588939189)
(-0.1051346682 0 0.1065718554)
(-0.09120564708 0 0.110788978)
(-0.08175309802 0 0.1104583525)
(-0.414434179 0 -0.02008201239)
(-0.5231239539 0 0.5779897826)
(-0.5803122907 0 0.6223260706)
(-0.6958687155 0 0.6791827211)
(-0.6809100225 0 0.6544007165)
(-0.5937365919 0 0.5693889274)
(-0.4672518011 0 0.4455595784)
(-0.3363504529 0 0.322834746)
(-0.4813670463 0 0.452689934)
(-0.894428464 0 0.5254570137)
(-1.005409226 0 0.6286761787)
(-1.012590731 0 0.6858303521)
(-0.983796694 0 0.4554885923)
(-1.608106174 0 -0.8803413908)
(-1.756389036 0 -1.211027494)
(-1.784322026 0 -1.206444669)
(-1.686520976 0 -1.125690298)
(-1.260174283 0 -0.8407251944)
(-0.1657161288 0 -0.1061529215)
(-0.1739379782 0 -0.04433956642)
(-0.1456381292 0 0.07215780505)
(-0.1273164035 0 0.1113917065)
(-0.1101343377 0 0.1243446119)
(-0.08984437864 0 0.1286193112)
(-0.5782175317 0 0.697523917)
(-0.7838424512 0 0.7656355072)
(-0.8212744979 0 0.7712252113)
(-0.7112567596 0 0.6719594032)
(-0.5374917126 0 0.5033399913)
(-0.3495209285 0 0.3173221755)
(0.1702959165 0 0.390605578)
(-0.8285325278 0 0.5724838211)
(-1.01984167 0 0.5030992985)
(-1.053049554 0 0.6584440915)
(-1.021618814 0 0.7375546529)
(-0.9853645338 0 0.6590190531)
(-1.481053067 0 -0.8264835233)
(-1.766756113 0 -1.219371148)
(-1.864173852 0 -1.271357472)
(-1.854969283 0 -1.243702137)
(-1.63758893 0 -1.091900286)
(-0.1884640246 0 -0.1245177253)
(-0.1887322883 0 -0.04891710466)
(-0.1453167093 0 0.07698852414)
(-0.1252062782 0 0.1187843343)
(-0.09801651719 0 0.1414810013)
(-0.9719749033 0 0.8930581142)
(-0.86587622 0 0.8258715536)
(-0.616040855 0 0.5880458491)
(-0.5404508159 0 0.1333290341)
(-0.1725070698 0 0.02691476991)
(-0.1153283696 0 0.1212449858)
(-1.02304833 0 0.6332627432)
(-1.043621545 0 0.4906188169)
(-0.9736685186 0 0.6804731796)
(-0.9333589341 0 0.826174513)
(-0.8901714655 0 0.7785733431)
(-1.245041528 0 -0.6109807322)
(-1.71043806 0 -1.170656617)
(-1.901527777 0 -1.309914967)
(-1.957606021 0 -1.323310062)
(-1.889905196 0 -1.261860878)
(-0.2035296881 0 -0.1421547038)
(-0.1961714145 0 -0.05653190122)
(-0.1332784414 0 0.04445650172)
(-0.05438719041 0 0.1044435661)
(0.9035340665 0 -1.142938023)
(1.885289661 0 -0.8762629961)
(0.1171773612 0 0.7602490678)
(-0.04226152054 0 0.709942421)
(-1.125415041 0 0.701114909)
(-1.036881207 0 0.5890800368)
(-0.8008977407 0 0.729543256)
(-0.721883078 0 0.9020648481)
(-0.7224351528 0 0.8682840791)
(-0.80193935 0 0.09279470763)
(-1.503044223 0 -0.9792005977)
(-1.893753292 0 -1.316372878)
(-2.008074011 0 -1.374489362)
(-2.022941846 0 -1.357863102)
(-0.217373426 0 -0.1314318448)
(-0.2010521673 0 -0.06731435864)
(-0.153774023 0 0.02192846254)
(0.4251922788 0 -0.2790452961)
(-0.3113411713 0 0.1335622802)
(0.6081519446 0 0.3822931419)
(-1.187407378 0 0.7831802197)
(-1.104429838 0 0.7074414423)
(-0.817647415 0 0.7670592553)
(-0.6221489937 0 0.8363197422)
(-0.5412075124 0 0.8125532473)
(-0.3291946255 0 0.5933805022)
(-0.8433318176 0 -0.3255586168)
(-1.777852099 0 -1.23698377)
(-2.019418425 0 -1.402951217)
(-2.076002354 0 -1.408521736)
(-0.05622523666 0 -0.293657865)
(-1.207711912 0 0.8161384115)
(-1.17422253 0 0.7504180641)
(-1.028559916 0 0.7530654662)
(-0.7534389054 0 0.5782379356)
(-0.06509038254 0 0.6387665434)
(0.007652351479 0 0.5415825633)
(-0.03218101809 0 0.464756609)
(0.01783272363 0 0.3258969946)
(0.5256113699 0 -1.231291206)
(-1.394450907 0 -0.1812667534)
(-1.454876171 0 -0.1507549395)
(-1.498176793 0 -0.03900138458)
(-1.477283509 0 -0.1707522211)
(-1.318517927 0 0.0843097287)
(-1.298198773 0 0.1132599509)
(-0.889783837 0 0.09006506492)
(-0.3541726773 0 -0.2452651528)
(-0.3464729322 0 -0.2363669165)
(-0.3604049917 0 -0.1256279623)
(-0.3739853409 0 -0.09171773872)
(-0.3619971905 0 -0.07245287852)
(-0.4494681207 0 -0.1064185453)
(-0.6123858429 0 -0.1682995463)
(-0.6039406799 0 -0.1620185538)
(-0.7617660803 0 0.113991182)
(-0.5965488482 0 -0.02265229807)
(-0.6170541819 0 0.05593578739)
(-0.6551410284 0 -0.006795027054)
(-0.5705198783 0 0.03273016146)
(-0.4514879387 0 0.1179243445)
(-0.4619112047 0 0.1913516506)
(-0.4845676984 0 0.2556048318)
(-1.018029821 0 -0.2996637176)
(-1.065558336 0 -0.2807067685)
(-1.146213462 0 -0.2539367755)
(-1.212249106 0 -0.241742456)
(-1.231355785 0 -0.2435034827)
(-1.28848092 0 -0.2150121457)
(-1.368860899 0 -0.1941473987)
(-1.381678764 0 -0.1883229366)
(-0.5475539617 0 0.3331577321)
(-0.5502451258 0 0.3818633008)
(-0.5191715156 0 0.3370406897)
(-0.5485048005 0 0.4171243351)
(-0.5386058323 0 0.4403260863)
(-0.5317457728 0 0.4125862283)
(-0.5410093638 0 0.4602523758)
(-0.640761799 0 0.4998896613)
(-0.8083772263 0 -0.3152171481)
(-0.8582156947 0 -0.3239304399)
(-0.8984079047 0 -0.3072465279)
(-0.9245058173 0 -0.3189576412)
(-0.9626016521 0 0.5874288677)
(-1.07540976 0 0.640278612)
(-1.020325499 0 0.6268570363)
(-1.162371265 0 0.6926582303)
(-0.5398115827 0 -0.213864306)
(-0.6168053423 0 -0.2535376322)
(-0.6508115258 0 -0.2663513847)
(-0.6759352927 0 -0.2775372419)
(-0.7293171554 0 -0.299035038)
(-0.7775943009 0 -0.3056361319)
(-1.163217512 0 0.6910150514)
(-1.172327535 0 0.7257564698)
(-1.211966023 0 0.7382770362)
(-1.191099549 0 0.7680805743)
(-1.159805809 0 0.7813255743)
(-1.131024543 0 -0.7084897412)
(-0.8258378497 0 -0.3912001378)
(-0.604469204 0 -0.2618023606)
(-0.9881995364 0 0.7339963794)
(-0.865692578 0 0.6699708325)
(-1.097117403 0 -1.026686863)
(-1.214924464 0 -1.146894391)
(-1.259914048 0 -1.027576896)
(-0.6156577437 0 0.5467544125)
(-0.474830489 0 0.4521878856)
(0.9775463994 0 1.122004186)
(0.9413610741 0 1.111780938)
(0.8947030351 0 1.062957719)
(-0.8413297557 0 0.09155357768)
(-0.6031490966 0 0.5871350762)
(-0.4705862509 0 0.4879035621)
(-0.4595568951 0 0.4545929422)
(-0.3918625724 0 0.4320710484)
(0.09627014332 0 -1.102811542)
(0.9075362432 0 1.007042148)
(0.9652791815 0 1.076482402)
(-0.4748282017 0 0.5506716016)
(-0.4039385134 0 0.4870249909)
(-0.3862708888 0 0.4542408689)
(0.3358196658 0 -1.471456002)
(0.2688759081 0 -1.287303547)
(-0.3663159632 0 0.5071598322)
(-0.2323812564 0 -0.4192455057)
(-0.1868270817 0 -0.6028761545)
(0.5065282251 0 -2.403990324)
(-0.402141632 0 0.6323524345)
(-0.3137715749 0 0.5335619008)
(-0.3203378597 0 0.5047305225)
(-0.2733166999 0 -0.6754753654)
(-0.2991424999 0 -0.7099430735)
(-0.3852535101 0 -0.8602846066)
(-0.3804953179 0 -0.7548387785)
(-0.4470656188 0 0.732768669)
(-0.3227559723 0 0.5772535915)
(-0.3142077559 0 0.5625080605)
(-0.2816932112 0 0.5170201674)
(-0.1925848705 0 -0.6263397752)
(-0.2440313969 0 -0.6701327584)
(-0.3350453986 0 0.4982293106)
(-0.1253497215 0 0.003800803618)
(-0.0967021429 0 0.02547898557)
(0.01100870805 0 -0.3266177338)
(-0.3760423633 0 0.5009791409)
(-0.3703254216 0 0.5050617099)
(-0.152903476 0 -0.0481541713)
(-0.1594418886 0 0.004651848882)
(-0.1379202085 0 0.01204757088)
(-0.4103393182 0 0.5810501439)
(-0.3917922582 0 0.6025051149)
(-0.3904969406 0 0.5457845187)
(-0.2338379587 0 -0.1570444547)
(-0.2777027531 0 0.3805094287)
(-0.2087407927 0 0.2377195559)
(-0.3459442695 0 0.7681567208)
(-0.3088983836 0 0.7551075125)
(-0.3587256782 0 0.6558814647)
(-0.2751779623 0 -0.2450407994)
(-0.3068520152 0 0.4566482681)
(-0.2994356584 0 0.4129532584)
(-0.1541308983 0 0.814465478)
(-0.1216868835 0 0.8270130198)
(-0.2347939921 0 0.8833972389)
(0.6801670642 0 0.3090105968)
(-0.462812529 0 0.6921498786)
(-0.3821756478 0 0.5721178989)
(-0.1935607541 0 0.625388693)
(-0.1357497843 0 0.6330609041)
(-0.08491966913 0 0.4979220583)
(-0.5175578537 0 0.8166375592)
(-0.510672654 0 0.7655013756)
(-0.07063520786 0 0.8036541115)
(-0.2393848178 0 0.6414814958)
(-0.5496442263 0 0.8417040674)
(-0.515586651 0 0.8276217203)
(0.4917876185 0 1.823918061)
(-0.5417571796 0 0.8602438258)
(0.2383544579 0 0.2011097271)
(0.3666773442 0 -0.2684271778)
(-0.4988024627 0 0.8263551257)
(0.8222484333 0 0.9699846822)
(0.6321012096 0 0.8836536707)
(0.6508920411 0 1.249793893)
(0.1494660638 0 -0.1698763378)
(0.09946329664 0 -0.2244900854)
(-0.2740999022 0 -0.1377474368)
(0.6658168079 0 0.6067968596)
(0.6408025852 0 0.63273911)
(0.6427118038 0 0.7393680301)
(0.08766033579 0 -0.06040709281)
(-0.006007008978 0 -0.08472430191)
(0.5606413039 0 0.4842161942)
(-1.137697277 0 -0.7753524714)
(-1.537768959 0 1.73844118)
(-1.471729141 0 1.658267431)
(-0.04816795322 0 0.1237379638)
(0.02161142592 0 0.1554715202)
(0.3102483904 0 0.3097599832)
(-1.551621083 0 1.785126417)
(-0.2195042922 0 0.07468772406)
(-0.6911924125 0 -0.09304441726)
(-1.437700763 0 1.68887575)
(-0.09092934829 0 0.1183402534)
(-0.08296263461 0 0.1176658689)
(-0.08408932504 0 0.1122185973)
(-0.2075656741 0 -0.3992942299)
(-0.9431677933 0 0.2051674482)
(-0.08989785313 0 0.1331081305)
(-0.08265432876 0 0.1260906131)
(0.4080729668 0 -0.4543915019)
(-0.5372510875 0 0.6870640209)
(-0.07884036829 0 0.1407538001)
(-0.09060372064 0 0.1404002636)
(0.5767775726 0 -0.4449829902)
(-0.9292048808 0 0.8820208672)
(0.7182017367 0 -1.536172156)
(0.6437496668 0 -1.509235833)
(-0.7585499025 0 0.7241075424)
(-0.1390090709 0 0.02756590626)
(-0.09300771703 0 0.05049064679)
(-0.09567762433 0 0.07173920933)
(-0.02609225176 0 0.07602340071)
(-0.01431308307 0 0.1148907318)
(0.8019008613 0 -1.206682359)
(0.853994772 0 -0.7850620972)
(0.6946937944 0 -0.4861609182)
(1.164326639 0 -1.049780038)
(-0.2001234105 0 -0.07607249762)
(-0.2208501599 0 -0.0509874727)
(-0.2215715677 0 -0.04293434075)
(-0.2413870367 0 0.04131429208)
(0.02489155912 0 -0.2076221191)
(-0.1694433923 0 -0.1984932771)
(-0.2023744355 0 0.02608617596)
(0.4912861143 0 0.1357265121)
(-1.223606284 0 0.7761062584)
(-1.19482297 0 0.7520063418)
(-2.006712883 0 -1.407883521)
(-2.062483388 0 -1.421203087)
(-2.063145579 0 -1.410699676)
(-2.084963548 0 -1.422987417)
(-2.100889734 0 -1.437376362)
(-2.091100669 0 -1.410251084)
(-0.004948868997 0 -0.4523442668)
(-1.227981215 0 0.7961330155)
(-1.199863361 0 0.7573698362)
(0.1152871388 0 0.8063754839)
(-1.101043035 0 0.7718830142)
(0.3561326842 0 0.8746224554)
(0.352414819 0 0.8864694042)
(-0.9335754027 0 0.6930645587)
(0.3068332513 0 0.8427184382)
(0.2306860816 0 0.741921024)
(-0.3472272875 0 0.5781056204)
(0.1616225064 0 0.6302348514)
(0.1094288149 0 0.5300320155)
(0.01319620443 0 0.6053854279)
(0.06824727145 0 0.4774801774)
(0.02559221993 0 0.4547430167)
(-0.02903344936 0 0.5131438545)
(0.001774722016 0 0.4472941586)
(-0.02305680993 0 0.4549890383)
(0.5608975505 0 -0.2015043903)
(-1.434338293 0 -0.1609983004)
(-1.487302025 0 -0.06472384573)
(-1.489772816 0 -0.05338986526)
(-1.481613458 0 -0.1635300948)
(-1.377681695 0 0.1831640194)
(-1.341079047 0 0.1624245656)
(-1.108414924 0 0.1862567614)
(-0.4668597862 0 -0.2129837579)
(-0.3706735266 0 -0.2626423904)
(-0.3914447027 0 -0.1700718688)
(-0.4005379084 0 -0.1345083491)
(-0.3841420256 0 -0.1160093155)
(-0.4650392735 0 -0.1069449487)
(-0.5527829836 0 -0.08633047349)