/*--------------------------------*- C++ -*----------------------------------*\
| =========                 |                                                 |
| \\      /  F ield         | OpenFOAM: The Open Source CFD Toolbox           |
|  \\    /   O peration     | Version:  2.1.x                                 |
|   \\  /    A nd           | Web:      www.OpenFOAM.org                      |
|    \\/     M anipulation  |                                                 |
\*---------------------------------------------------------------------------*/
FoamFile
{
    version     2.0;
    format      ascii;
    class       volScalarField;
    location    "1.5";
    object      deltaf;
}
// * * * * * * * * * * * * * * * * * * * * * * * * * * * * * * * * * * * * * //

dimensions      [0 1 0 0 0 0 0];

internalField   nonuniform List<scalar> 
2828
(
3.672556982e-08
1.533443204e-08
3.763572232e-14
6.760542116e-14
1.993157428e-13
4.168928421e-07
2.078497854e-07
1.134673398e-07
8.411749254e-08
6.396320305e-08
6.989182342e-08
2.768785245e-07
1.731407018e-06
7.923352268e-06
3.73665019e-05
0.000225092406
0.0006231496237
1.202994902e-07
1.109042078e-07
1.12511869e-07
8.940084522e-08
8.090898328e-08
1.137720613e-07
3.268061225e-07
1.599448316e-06
5.786617643e-06
1.979162971e-05
6.454068148e-05
0.0001884929191
0.0004363144724
0.0004213882589
2.187154217e-07
8.064269828e-11
3.085628639e-07
1.117313565e-07
8.600531412e-08
9.725976354e-08
1.232284027e-07
2.350584809e-07
9.091526165e-07
3.077771174e-06
9.179496602e-06
2.600624653e-05
6.889834459e-05
0.0001619535423
0.0003102305441
0.0004056598949
0.0002239222498
7.189003947e-09
8.665734077e-09
1.911493749e-06
1.191319768e-06
9.497141057e-07
2.941646367e-07
1.779050898e-07
1.589704762e-07
1.972938293e-07
4.637017706e-07
1.608002912e-06
4.505392693e-06
1.171776851e-05
2.912871052e-05
6.773803065e-05
0.0001415415336
0.0002502523206
0.0003407933771
0.000297590293
0.0001085191043
2.445813755e-08
3.076636273e-07
2.341242871e-06
4.969176053e-07
4.950320572e-08
1.358537276e-06
1.00192354e-06
4.547680811e-07
2.689065187e-07
3.211658931e-07
7.87644877e-07
2.291585106e-06
5.758900051e-06
1.361884909e-05
3.07362827e-05
6.52074457e-05
0.0001260656399
0.0002125519255
0.0002937607621
0.0003019210954
0.0001924896712
5.093072443e-05
7.534418992e-08
1.93625973e-06
1.437110508e-06
4.899555945e-08
3.336820842e-09
4.530596984e-10
7.519845465e-07
7.143066892e-07
6.256609973e-07
4.585457927e-07
5.232082491e-07
1.147044569e-06
2.916128121e-06
6.788704831e-06
1.498465232e-05
3.15214088e-05
6.24926747e-05
0.0001141843495
0.0001861077218
0.000258870708
0.0002886995662
0.0002339839537
0.0001155284292
2.396242343e-05
6.432889332e-08
1.111064885e-06
1.091483137e-07
4.167082456e-12
1.475303834e-12
4.136234181e-12
6.022838338e-07
4.285464356e-07
3.264373019e-07
4.22840349e-07
7.748797263e-07
1.509971947e-06
3.459410809e-06
7.596292115e-06
1.59090852e-05
3.175564468e-05
5.986206781e-05
0.0001048270912
0.0001664494194
0.0002319462874
0.0002714733222
0.0002507304519
0.0001657722613
6.629968474e-05
1.142953135e-05
6.052386419e-08
1.767993907e-07
1.26653628e-09
5.981098243e-15
1.608852178e-12
1.147206798e-12
1.785179947e-12
2.359679001e-07
6.676885978e-07
2.412120169e-06
2.022965743e-06
1.775406144e-06
3.804570384e-06
8.19643747e-06
1.647661717e-05
3.159333309e-05
5.732702327e-05
9.719599945e-05
0.0001511992908
0.0002105679826
0.0002541818246
0.0002546506165
0.0001990277475
0.000110351085
3.704034612e-05
5.403130676e-06
4.060655686e-08
1.82273574e-08
3.197350479e-10
5.825053596e-18
2.149002752e-11
3.079730202e-10
5.20109278e-09
1.267672349e-05
1.572465843e-06
1.384256154e-06
1.327973e-06
1.444618441e-06
1.626226446e-06
3.500974851e-06
8.51913749e-06
1.67575218e-05
3.113997377e-05
5.486784876e-05
9.074676505e-05
0.0001389173502
0.0001931648631
0.0002380792044
0.0002519389155
0.0002192847191
0.0001477213819
7.029004165e-05
2.031133379e-05
2.092145236e-06
7.73936065e-07
2.405225412e-06
5.588683398e-06
1.306252992e-05
3.294602939e-05
8.80525329e-05
0.0002420233439
0.0006716613411
2.504200627e-06
1.742053455e-06
1.509001458e-06
1.811472329e-06
3.486021105e-06
8.384702999e-06
1.676527597e-05
3.047926205e-05
5.247625589e-05
8.513264892e-05
0.0001286969757
0.0001786537211
0.0002234688223
0.0002458521561
0.0002305383902
0.0001766649213
0.000104370447
4.366611266e-05
1.192078001e-05
8.861977079e-06
1.709438505e-05
3.419906438e-05
6.805585104e-05
0.0001336520711
0.0002540467413
0.0004535916453
0.0007281195432
0.0009816883254
3.253422009e-06
2.447685163e-06
2.107259129e-06
3.188983563e-06
8.071158348e-06
1.645206159e-05
2.965901306e-05
5.016539502e-05
8.01419322e-05
0.0001199603396
0.0001662850795
0.0002102994601
0.0002381471588
0.0002358236179
0.000198170323
0.000136155479
7.355093698e-05
3.364516414e-05
2.865466092e-05
4.632703219e-05
8.100312468e-05
0.0001384671895
0.0002274254227
0.0003517819116
0.0004973505146
0.0006118852589
0.0005934830153
0.0003406361989
9.757794002e-09
2.315338824e-06
1.493954346e-06
1.940341344e-06
7.212537407e-06
1.587486871e-05
2.868324553e-05
4.79463399e-05
7.565559524e-05
0.0001123400564
0.000155532098
0.0001984035293
0.0002298096433
0.0002373919696
0.0002142998531
0.0001657887669
0.0001092916669
6.716929304e-05
6.072510312e-05
8.593705775e-05
0.0001337169462
0.0002028119337
0.0002924365354
0.0003934733348
0.0004815143129
0.0005154868117
0.0004519427592
0.0002843512326
9.033180221e-05
4.921475941e-09
2.57514481e-06
2.002379205e-06
2.015071047e-06
4.744450144e-06
1.466556677e-05
2.754117883e-05
4.580920863e-05
7.159954111e-05
0.0001056222998
0.0001462257911
0.0001888101905
0.0002255157869
0.0002415594406
0.0002276051838
0.0001952056874
0.0001500796347
0.0001096491853
0.0001018836547
0.0001303655969
0.0001837902513
0.0002537364095
0.0003321745266
0.0004052124317
0.0004509950601
0.0004445253559
0.0003708647408
0.0002428783947
0.000108079773
2.292364082e-05
2.188739377e-07
3.657911476e-06
2.916737535e-06
4.333590885e-06
1.150138937e-05
2.558662065e-05
4.366137286e-05
6.790128002e-05
9.964730053e-05
0.0001380370141
0.0001805194513
0.0002227863598
0.0002492441626
0.0002459198197
0.0002297486841
0.0001943111541
0.0001572574963
0.0001478331257
0.0001751701709
0.0002273461809
0.0002909413574
0.0003537132801
0.0004014946333
0.0004180750765
0.0003901936345
0.0003158675543
0.0002111378154
0.0001075825094
3.60896902e-05
5.766487278e-06
7.380497308e-07
6.705029922e-06
6.051521014e-06
1.039070863e-05
2.159684959e-05
4.032512084e-05
6.4293458e-05
9.42257823e-05
0.0001303428153
0.000170506972
0.0002128731659
0.0002556650563
0.0002784722132
0.0002704672411
0.0002460131556
0.0002065834989
0.0001947064831
0.0002174224198
0.000263324805
0.0003165159828
0.0003629449783
0.0003899607144
0.000386679876
0.0003473618101
0.0002757742072
0.0001869250105
0.0001028530491
4.250853655e-05
1.17049254e-05
2.371842421e-06
1.225121311e-05
1.254742469e-05
1.330577891e-05
2.031594034e-05
3.497051592e-05
5.900219361e-05
8.892031235e-05
0.0001236913717
0.0001630032027
0.0002053470663
0.0002500735863
0.0002933619331
0.0003154593017
0.000298247225
0.0002580578946
0.0002397488547
0.0002554220837
0.0002919957432
0.0003329716047
0.0003641047619
0.0003747149283
0.0003580290021
0.0003128412815
0.0002452523277
0.0001682177659
9.761763431e-05
4.588956869e-05
1.688200594e-05
6.367475081e-06
2.155791369e-05
2.401662306e-05
1.978940292e-05
2.502844631e-05
3.392972422e-05
5.189107194e-05
8.148575343e-05
0.0001172584537
0.0001575116855
0.0002042715453
0.0002590447406
0.0003128070518
0.000342002318
0.0003359737569
0.0003054215881
0.0002820605489
0.0002884153004
0.0003141445294
0.0003425482031
0.0003600969833
0.0003579868655
0.000332324795
0.0002844885275
0.0002212602415
0.0001535003367
9.294308051e-05
4.815937565e-05
2.196380741e-05
1.31881666e-05
3.787513758e-05
5.236002289e-05
2.761493556e-05
4.024667456e-05
5.136085643e-05
7.303838807e-05
0.0001090957281
0.0001537434367
0.0002070651704
0.0002722292985
0.0003403545191
0.0003800145045
0.0003723518938
0.0003422874896
0.0003191450796
0.0003164756613
0.0003307168175
0.000347037219
0.000352863521
0.0003409743811
0.0003093587809
0.0002607270163
0.0002017256565
0.0001413155606
8.823804337e-05
4.837371226e-05
2.322615371e-05
1.034679649e-05
4.778948772e-06
5.688979044e-05
8.275875098e-05
8.698520954e-05
5.919644918e-05
7.363140828e-05
0.0001024739747
0.0001517164637
0.0002162856922
0.0002906655989
0.0003633167966
0.000410431746
0.0004112622482
0.0003798011186
0.0003507014703
0.0003397345106
0.0003427378575
0.0003478323433
0.0003437428673
0.0003244334842
0.0002890759371
0.0002410119045
0.000186512738
0.0001331525869
8.783543767e-05
5.490608196e-05
3.538673377e-05
3.058605325e-05
3.582750073e-05
7.568263391e-06
3.916220865e-06
0.0001217980725
7.554790867e-05
7.958864116e-05
0.0001079224846
0.0001560478795
0.0002314546016
0.0003171502599
0.0003891978782
0.0004308376062
0.0004354435216
0.0004105473217
0.0003789322496
0.0003589965088
0.0003512812331
0.0003461328247
0.000333803807
0.0003090908836
0.0002718422769
0.0002256406055
0.0001763147185
0.0001304273997
9.390211517e-05
7.152510977e-05
6.809688357e-05
7.685321347e-05
6.296227321e-05
4.705812097e-05
2.332400903e-05
1.059893027e-05
6.903566619e-05
0.0001740569679
0.000252633698
0.0003469804211
0.0004217821582
0.0004546694582
0.000451400063
0.0004279421384
0.0003983744354
0.0003737407952
0.0003570775278
0.0003429351339
0.0003237628175
0.0002951473514
0.0002571000381
0.000212933147
0.0001675851213
0.000126081837
9.222707803e-05
6.761458146e-05
5.081269535e-05
3.948823427e-05
4.957585678e-05
5.502122787e-05
5.733445458e-05
4.569267985e-05
2.15004135e-05
4.075509947e-05
0.0002776127301
0.0003756476115
0.0004533211252
0.0004848220773
0.0004725652399
0.0004413064189
0.0004092879571
0.0003821460412
0.0003597316012
0.0003386090683
0.000313862797
0.0002822443257
0.0002437598156
0.0002011098435
0.0001582065215
0.0001187536027
8.520547555e-05
5.825640419e-05
3.727800857e-05
2.393940698e-05
3.547171358e-05
3.575432234e-05
3.913650511e-05
5.180067248e-05
6.452564428e-05
3.6721106e-05
0.0004814025025
0.0005103845625
0.0004975892548
0.0004591546139
0.0004190259629
0.0003863839756
0.0003591950826
0.0003329836946
0.0003039646008
0.000269970033
0.0002311337025
0.0001895883393
0.0001483869473
0.0001103970415
7.756064441e-05
5.067996182e-05
2.9899065e-05
1.634521646e-05
2.060308435e-05
3.213580822e-05
3.141733697e-05
2.319964401e-05
1.977154206e-05
4.872160641e-05
0.0001539357328
0.0005188636302
0.0005146662217
0.0004767679553
0.0004307246633
0.0003904154178
0.0003571067737
0.0003262922742
0.0002938919175
0.0002580416736
0.000218946477
0.0001783490753
0.0001386785339
0.0001022317664
7.06722919e-05
4.48743174e-05
2.509486314e-05
1.139857569e-05
4.733393227e-06
1.386233917e-05
2.301835151e-05
3.203940015e-05
3.343245152e-05
1.371336514e-05
2.093335552e-07
0.0004820638738
0.0004390674269
0.0003941212908
0.0003548456691
0.0003192553885
0.0002837921574
0.0002464264341
0.0002072145858
0.0001676214797
0.0001296492483
9.514393946e-05
6.543188592e-05
4.127701244e-05
2.300735493e-05
1.058200241e-05
3.520509203e-06
8.820045837e-07
3.035940187e-06
8.21368024e-06
1.760110916e-05
3.521539378e-05
4.448293031e-05
0.0003909661979
0.0003512775272
0.0003120787537
0.0002741047074
0.0002357241697
0.0001969703605
0.0001593118484
0.0001249381622
9.61849696e-05
7.558813821e-05
6.775769501e-05
8.646575831e-05
0.0001343387911
0.000100936695
1.556966921e-05
3.300526485e-07
1.481829833e-07
1.031213392e-07
1.147263677e-09
7.613481463e-07
0.0002653197742
0.0002263395981
0.000188850088
0.0001534182879
0.0001224196612
9.785065331e-05
8.133281298e-05
7.311766253e-05
6.810429509e-05
6.016430636e-05
7.851821898e-05
5.909039163e-05
1.622177627e-05
1.726075805e-07
7.560551224e-08
3.132210085e-08
1.522230705e-13
0.0001788048583
0.000148115056
0.0001173442471
9.230690483e-05
7.119676776e-05
5.249423746e-05
3.077217493e-05
8.72662227e-06
3.146006557e-05
7.120557746e-05
7.996485968e-05
3.656970468e-05
7.562996463e-08
6.885795513e-08
6.105122383e-05
3.983327978e-05
2.32451549e-05
7.356795228e-06
9.160611601e-07
6.49911897e-06
3.478244773e-05
9.218445412e-05
8.313735172e-05
1.311357336e-07
1.114496383e-07
9.140103111e-08
7.540659172e-08
6.362358464e-08
4.135700752e-08
5.130066049e-08
3.999808648e-08
2.60707074e-08
3.133959866e-08
1.199480076e-08
4.646887453e-09
1.488594066e-14
2.533464729e-14
4.911678433e-14
5.118429936e-14
1.57957158e-13
7.957495883e-14
7.26025673e-13
3.094325449e-12
1.390712546e-11
1.702773935e-08
6.514077982e-08
2.257092971e-07
2.966154924e-07
3.319952967e-07
2.112094072e-07
2.955670174e-07
1.563002056e-07
1.233738138e-07
1.525832462e-07
0.0003751004249
0.0005893631689
0.0006234611111
0.000537768204
0.00040432821
0.0006199917624
3.408631959e-06
3.398583197e-05
1.611266322e-07
1.11425308e-07
8.314811606e-08
1.111173941e-07
8.825784864e-10
1.029729165e-06
8.23118504e-07
1.732961777e-06
8.675653322e-07
5.35062664e-07
4.944542154e-07
2.746121939e-07
1.671935565e-07
1.843138938e-07
2.22614445e-06
2.174922616e-06
2.167559507e-06
7.714329575e-07
2.50867102e-07
1.566492769e-06
1.409610296e-06
1.348723366e-06
2.027334565e-08
6.606927986e-09
9.401272138e-07
9.847106451e-07
1.286669724e-06
1.255330269e-11
1.016646994e-11
6.367692048e-07
5.804457395e-07
4.978381674e-07
7.185594159e-07
1.991376408e-12
3.026936095e-12
5.338176741e-12
3.237981049e-12
5.263977135e-07
4.055499598e-07
5.420608651e-07
1.033695295e-14
3.828244267e-16
8.380261134e-12
1.131351203e-06
2.609762942e-07
9.34329839e-08
2.222945247e-06
1.938409696e-06
1.422138043e-06
0.0008942487537
0.001037359881
0.001033284958
2.97612266e-06
2.734872618e-06
2.19210686e-06
2.062362909e-06
0.0006230812687
0.0003733461322
0.001039398958
3.869532345e-08
3.853282565e-06
3.68135811e-06
1.802995689e-10
2.422645506e-06
2.341154663e-06
2.711571737e-06
1.261516204e-07
2.690186252e-06
2.967126472e-06
2.540270229e-06
2.282069606e-06
3.443607572e-07
9.067122293e-06
6.089763117e-06
4.839191118e-06
4.086488501e-06
3.090153202e-06
3.226001575e-06
1.748457396e-05
1.252508726e-05
9.323929478e-06
8.359489251e-06
5.766251261e-06
1.989201982e-05
2.123144147e-05
1.967402905e-05
1.618927009e-05
1.682250046e-05
1.20176347e-05
2.582944155e-05
2.063305843e-05
2.21284153e-05
2.702956128e-05
2.202311129e-05
5.776168811e-05
1.571177265e-05
4.13769605e-05
3.346418046e-05
0.0001135210538
5.000588265e-05
6.78519115e-05
7.777644931e-05
6.552878147e-05
8.916298989e-05
5.871885355e-05
9.295630556e-05
9.745290372e-05
0.0001160699525
9.373133902e-05
5.772147369e-05
5.207443257e-05
5.408083382e-05
0.0001847329863
0.0001424123584
2.45410349e-05
0.0003407889278
0.0003919289263
0.0003280583822
7.201285432e-05
2.258964012e-07
3.301309563e-06
0.0004453611164
0.0005043093507
0.0005183588176
0.0004995287789
2.160504428e-07
2.769251803e-06
8.789859376e-05
0.0005160977638
0.000525905014
4.946001022e-14
4.41283492e-06
0.0004370524195
0.0004636407142
8.362066978e-05
3.714204941e-07
0.0003462467476
0.0003724171186
0.0003262515486
0.0003083035019
0.0003312985384
2.168474891e-11
2.321346991e-09
1.005289352e-08
2.329359752e-06
3.564054008e-07
0.0002816800843
0.0002388845458
0.0002200325267
0.0002457717767
2.266795262e-08
6.233513844e-09
1.831912815e-08
0.0001620546329
0.0001270363308
0.0001120128459
0.0001325029832
9.884949819e-05
8.89661509e-05
0.0001040916793
5.715395356e-05
8.579968572e-08
8.902542215e-08
1.280493475e-07
4.558188373e-08
4.600873569e-08
4.903902161e-08
7.231445676e-05
4.971905935e-05
1.997351005e-05
3.19822698e-05
1.39780078e-05
7.833168962e-06
1.457104466e-05
3.329184214e-06
7.774830875e-07
2.577781554e-06
1.240584538e-07
7.402739781e-08
2.69904128e-06
9.313717e-08
1.99968142e-07
1.474318036e-05
6.004613303e-07
9.200223035e-05
8.724649683e-05
1.062642648e-07
9.754763165e-08
9.673616901e-08
8.983383402e-08
8.065266325e-08
7.329636828e-08
1.039970059e-07
1.757264636e-07
4.95110489e-08
3.627998835e-07
8.890080021e-07
1.25089327e-07
1.87953749e-06
3.761903445e-06
7.529447256e-07
7.457635008e-06
1.475768637e-05
3.715834129e-06
2.895470119e-05
5.59938595e-05
1.686924089e-05
0.0001077052311
0.0002062587975
8.979856437e-05
7.402375773e-08
7.542439492e-08
1.10235538e-07
8.211148517e-08
8.961134383e-08
1.019807303e-07
9.731786625e-08
1.049749127e-07
8.151211278e-08
1.166625085e-07
1.565686517e-07
8.877376546e-08
2.63254308e-07
5.844501038e-07
1.825587092e-07
1.235593818e-06
2.332102085e-06
7.675632561e-07
4.256871358e-06
7.605098522e-06
3.084744487e-06
1.3419143e-05
2.342178751e-05
1.073233322e-05
4.031826811e-05
6.794821745e-05
3.610893481e-05
0.0001110555406
0.0001743489467
0.0001121556081
0.0002597495181
0.0003587647924
0.0003012816015
0.0004387224432
0.0004389564804
0.0005224623785
0.0003124789292
0.000146857013
0.0002434110739
2.7731589e-08
3.507203541e-08
1.664308168e-07
1.289215113e-07
1.219876171e-07
9.117262396e-08
1.240621773e-07
1.279850247e-07
9.01891847e-08
1.363472414e-07
1.557404168e-07
1.068374464e-07
2.081423544e-07
3.33791754e-07
1.564738866e-07
6.467477818e-07
1.256300985e-06
4.291159342e-07
2.230877995e-06
3.806751679e-06
1.724098297e-06
6.370506236e-06
1.053643283e-05
5.350634886e-06
1.723996611e-05
2.783215971e-05
1.555235684e-05
4.418035222e-05
6.863047506e-05
4.278998873e-05
0.0001036677154
0.0001510483991
0.0001077117774
0.0002102387834
0.0002761646425
0.0002316115592
0.000336603992
0.0003708944756
0.0003793872472
0.0003545913907
0.0002757678044
0.0003536127786
0.0001569661784
5.431929328e-05
8.899826969e-05
9.286532189e-09
2.296022011e-08
1.024038716e-08
6.504587405e-08
1.778961651e-06
1.408544309e-06
9.758312644e-07
6.163714685e-07
5.0653831e-07
4.071899933e-07
2.953743216e-07
2.099258999e-07
2.310591869e-07
2.04413758e-07
1.628114992e-07
2.080618332e-07
2.511355591e-07
1.668071573e-07
3.631617219e-07
6.183557446e-07
2.775637845e-07
1.132514913e-06
1.955303808e-06
8.863154055e-07
3.216018868e-06
5.158803099e-06
2.733140846e-06
8.153189647e-06
1.274124534e-05
7.306708256e-06
1.969466571e-05
3.006146892e-05
1.859294018e-05
4.51704494e-05
6.653776997e-05
4.48881012e-05
9.561584062e-05
0.0001332741325
9.955346738e-05
0.0001789512919
0.0002295653522
0.0001930940241
0.000278510648
0.0003153874183
0.0003042119414
0.0003274201743
0.0003036758321
0.0003427798705
0.0002421928877
0.0001566254247
0.0002097840774
7.444848323e-05
2.099195738e-05
3.351045743e-05
4.942044525e-08
2.646923464e-07
8.933467617e-08
9.552769631e-07
2.386533255e-06
2.117992634e-06
2.110980327e-06
1.332484066e-06
1.878645097e-06
2.2047893e-07
5.281691141e-08
1.469243006e-07
9.952398668e-07
9.561297244e-07
1.248543963e-06
7.941632005e-07
5.831156451e-07
6.947135931e-07
4.401638871e-07
3.585399764e-07
3.263468622e-07
3.455997905e-07
4.107780906e-07
2.65921964e-07
5.890813112e-07
9.653124077e-07
4.668813839e-07
1.619709746e-06
2.612839723e-06
1.378307225e-06
4.095399582e-06
6.302342614e-06
3.671605215e-06
9.569493675e-06
1.43626607e-05
8.906888944e-06
2.130795967e-05
3.121065362e-05
2.058983833e-05
4.503863874e-05
6.384449506e-05
4.518957071e-05
8.857726541e-05
0.0001197506259
9.194901939e-05
0.0001569556274
0.000198273672
0.0001670725486
0.0002397322137
0.0002751169042
0.0002574270184
0.0002965643956
0.0002962721878
0.000311668708
0.0002693870119
0.0002173996464
0.0002603226017
0.000150192843
8.411938523e-05
0.0001153405356
3.487536605e-05
8.751615448e-06
1.341061549e-05
6.450496292e-08
8.50867992e-07
6.915329215e-07
1.784123739e-06
1.315524642e-06
2.149243673e-06
6.01595145e-07
1.719210769e-07
6.815111569e-07
1.273856557e-10
2.797796301e-11
9.386185314e-09
1.473875508e-11
1.162320577e-11
1.344577041e-09
4.67473687e-07
4.616255743e-07
7.023476018e-07
4.569013071e-07
5.035134231e-07
5.128930546e-07
5.555377453e-07
6.542498647e-07
4.501250566e-07
8.794880208e-07
1.329580945e-06
7.274933733e-07
2.077691889e-06
3.198976632e-06
1.853571009e-06
4.839919527e-06
7.219506455e-06
4.485237594e-06
1.063854624e-05
1.549635692e-05
1.014487896e-05
2.230551832e-05
3.169620802e-05
2.187344389e-05
4.439570759e-05
6.116456054e-05
4.476481867e-05
8.266474306e-05
0.0001092460397
8.5492638e-05
0.0001406419793
0.0001756094267
0.0001482367276
0.0002115944019
0.0002445898114
0.0002246359263
0.000269361003
0.0002802415453
0.0002824356499
0.0002725707007
0.0002445271424
0.0002727750896
0.0001987729055
0.0001429249156
0.0001777784449
8.789064958e-05
4.39897992e-05
6.095448017e-05
1.652981946e-05
3.908382872e-06
5.822147274e-06
6.211848911e-08
6.273662893e-07
8.056558056e-07
4.909598621e-07
9.32394743e-08
4.874884666e-07
7.442076876e-09
6.511882402e-10
9.930961795e-09
5.06914172e-14
8.908921945e-14
9.058911115e-13
1.023085825e-12
1.659024035e-12
2.636232478e-12
3.53196532e-07
3.44893693e-07
3.578553038e-07
4.326482259e-07
6.283954675e-07
3.291000047e-07
9.501827252e-07
1.374647e-06
5.882906319e-07
1.628466999e-06
1.81598005e-06
1.034140352e-06
2.496596073e-06
3.697107162e-06
2.289780466e-06
5.441032073e-06
7.92121689e-06
5.158675429e-06
1.140372126e-05
1.623273949e-05
1.105629653e-05
2.283504235e-05
3.171667876e-05
2.262119046e-05
4.344207584e-05
5.858382311e-05
4.395047857e-05
7.762928769e-05
0.0001008349276
8.005515383e-05
0.0001280297448
0.0001583790633
0.0001339629195
0.0001901681896
0.0002206766894
0.0002002064345
0.000246255312
0.0002627236316
0.0002573205034
0.0002661287282
0.0002538132888
0.0002700766442
0.0002255496195
0.000184302831
0.0002143275969
0.0001361320603
8.88543457e-05
0.0001133275618
4.968505286e-05
2.27503629e-05
3.166640969e-05
7.89056743e-06
1.626755183e-06
2.589769084e-06
5.765523001e-08
3.144066921e-07
4.653390538e-07
6.088794397e-08
2.38593746e-09
1.142356065e-08
6.508254761e-10
8.675945896e-11
2.831593951e-10
5.247266414e-16
1.048057664e-14
2.821849108e-14
3.420953098e-12
2.530939426e-12
1.818415434e-12
7.123904205e-13
1.347742432e-13
8.830984618e-13
9.285090622e-07
8.296436357e-07
3.051047602e-07
9.434601923e-07
1.189508714e-06
1.417561452e-06
1.471002217e-06
1.511820785e-06
2.605218308e-06
1.441974397e-06
1.574623811e-06
1.724972715e-06
2.191681029e-06
3.643707946e-06
2.394764378e-06
5.787883231e-06
8.420415464e-06
5.686381965e-06
1.190875435e-05
1.664879159e-05
1.168607535e-05
2.300616273e-05
3.139755409e-05
2.295972613e-05
4.227558309e-05
5.608865325e-05
4.288102799e-05
7.321283915e-05
9.384910105e-05
7.535669484e-05
0.0001178884816
0.0001447537086
0.0001227071136
0.0001732461601
0.0002014465408
0.0001812448559
0.0002267270172
0.000245950364
0.0002360857035
0.000255889952
0.0002538730203
0.0002612770505
0.0002385378542
0.000210510266
0.0002333696301
0.0001727162418
0.0001300781478
0.0001559208001
8.84792541e-05
5.32151147e-05
6.902727965e-05
2.748540735e-05
1.164476326e-05
1.630811516e-05
3.655480304e-06
3.743938819e-07
8.868043327e-07
2.848575028e-09
2.074793876e-14
1.505402405e-07
6.668955023e-14
1.620311991e-13
1.087600193e-09
3.425601138e-13
6.675688231e-13
4.035653286e-11
1.14353983e-12
2.84185354e-12
1.175840442e-16
1.31823775e-11
5.650356134e-11
8.520093232e-11
2.406490589e-10
1.043997949e-09
1.190849954e-09
4.368949606e-09
1.836264165e-08
1.889657841e-08
1.741485221e-06
1.596890758e-06
1.302206178e-06
1.544895747e-06
1.54349892e-06
1.389946337e-06
1.588751763e-06
1.748079458e-06
1.479361901e-06
2.256539184e-06
3.483210963e-06
2.171856603e-06
5.591269785e-06
8.47210953e-06
5.694079322e-06
1.212845925e-05
1.680450375e-05
1.20709731e-05
2.290486802e-05
3.083051449e-05
2.29846129e-05
4.096190401e-05
5.366340931e-05
4.163355129e-05
6.92375047e-05
8.785121511e-05
7.117823866e-05
0.0001094388373
0.0001335912899
0.0001134880623
0.0001594451127
0.0001856012735
0.0001660206647
0.0002101136294
0.0002305864158
0.0002180964719
0.0002444158691
0.0002491832617
0.0002502143942
0.0002431590065
0.0002258250121
0.0002416462768
0.0001982607501
0.0001632210761
0.0001867308914
0.0001247758484
8.751061002e-05
0.0001072225703
5.545397408e-05
3.108849089e-05
4.076557679e-05
1.483279394e-05
5.657109901e-06
8.221889233e-06
2.904147667e-06
3.633290398e-06
4.076736307e-07
5.32831515e-06
7.867747371e-06
1.456791369e-06
1.155100712e-05
1.693205507e-05
3.705221985e-06
2.487625982e-05
3.669689691e-05
8.471752898e-06
5.434259188e-05
8.062202806e-05
2.055348847e-05
0.000119444842
0.0001760049413
5.358391718e-05
0.0002567344583
0.0003685991333
0.0001456743361
0.0005168127741
0.0006992594747
0.0004030541309
1.836983992e-06
1.655382937e-06
1.558123763e-06
1.619531512e-06
1.75337238e-06
1.580822804e-06
2.209258776e-06
3.331958052e-06
2.339956752e-06
5.394715315e-06
8.275423901e-06
5.522413989e-06
1.196107411e-05
1.663708327e-05
1.207243344e-05
2.257029886e-05
3.009050775e-05
2.277089547e-05
3.956026997e-05
5.13092979e-05
4.026825154e-05
6.559657106e-05
8.256825824e-05
6.737936817e-05
0.0001021910261
0.0001241703111
0.0001056874899
0.0001478681415
0.0001722390563
0.0001534208519
0.0001958073006
0.000216713264
0.0002027054783
0.000232853546
0.0002421279532
0.0002386048724
0.0002427780902
0.0002337719024
0.000243440453
0.0002151507494
0.0001882343726
0.0002076277227
0.0001555762903
0.0001206031324
0.0001409081178
8.697887706e-05
5.784996757e-05
7.097812515e-05
3.540058526e-05
2.121710817e-05
2.38343407e-05
1.594667066e-05
1.713558284e-05
7.915268373e-06
2.213868991e-05
3.006853844e-05
1.210640826e-05
4.112278801e-05
5.611878704e-05
2.419116428e-05
7.626562716e-05
0.0001030759222
4.828717526e-05
0.0001383046362
0.0001838243225
9.562104834e-05
0.0002413570737
0.0003119881761
0.0001853191444
0.0003953851287
0.000488682988
0.0003429243404
0.0005849712382
0.0006714961883
0.0005844457047
0.0007278618222
0.0007247046522
0.000868832503
3.616878839e-06
2.729577392e-06
2.7979136e-06
2.028003241e-06
1.706854142e-06
2.214060105e-06
1.755667713e-06
2.603852268e-06
2.280177891e-06
4.832460419e-06
7.728151453e-06
5.117204233e-06
1.153923878e-05
1.621135735e-05
1.180114811e-05
2.198917892e-05
2.918652273e-05
2.230370941e-05
3.810856575e-05
4.904528695e-05
3.88410735e-05
6.224073824e-05
7.784111351e-05
6.388473769e-05
9.584087245e-05
0.0001160289821
9.891712264e-05
0.0001379266906
0.0001607371765
0.0001427199681
0.0001833198613
0.0002042106527
0.000189360695
0.0002217046032
0.0002340139108
0.0002272091041
0.0002394997714
0.0002369545597
0.0002414020972
0.0002258875744
0.0002067543151
0.0002211379811
0.0001810395329
0.000151140238
0.0001688821638
0.0001200197408
9.072127933e-05
0.0001033168621
6.609045775e-05
4.906735881e-05
4.953189466e-05
4.175730546e-05
4.33016403e-05
2.725196408e-05
5.157474945e-05
6.5194137e-05
3.54028767e-05
8.36948244e-05
0.0001072834034
6.132994431e-05
0.0001365375728
0.0001721038703
0.0001063319011
0.000214434317
0.0002635151978
0.0001785370668
0.0003185674984
0.0003776896268
0.0002854291373
0.0004374813691
0.0004927477009
0.0004240398038
0.000536404476
0.000559810405
0.00056377554
0.0005537872358
0.0005106210157
0.0006270949453
0.0004272427508
0.0003094562775
0.0004982539919
0.0001762076534
6.070773842e-05
0.0001478586335
1.956962258e-06
1.680221482e-06
1.791965003e-06
1.6271086e-06
1.895865342e-06
1.490706875e-06
2.914538304e-06
5.773378058e-06
3.622646595e-06
1.05169214e-05
1.541764183e-05
1.114713075e-05
2.117869121e-05
2.814444925e-05
2.162478559e-05
3.661159171e-05
4.686790783e-05
3.736386892e-05
5.914155697e-05
7.357914113e-05
6.066127021e-05
9.020851014e-05
0.000108891828
9.294099146e-05
0.0001292839802
0.0001508058446
0.0001334370958
0.0001726284199
0.0001936572086
0.0001776205635
0.0002124802839
0.0002273234977
0.0002163486179
0.0002362775472
0.0002380793693
0.0002372273357
0.0002328270692
0.0002211406758
0.0002296895769
0.0002031261595
0.0001803847982
0.0001923403317
0.000154989897
0.0001291386698
0.0001372013669
0.0001054012397
8.752401646e-05
8.482462824e-05
7.896984184e-05
8.043518857e-05
5.914961661e-05
9.059706519e-05
0.0001078630744
7.01615579e-05
0.0001310429322
0.0001594145004
0.0001072071936
0.0001925548731
0.0002300624475
0.0001655492292
0.0002712713699
0.0003150136906
0.0002453394159
0.000359450001
0.0004019648301
0.0003426339237
0.0004391620804
0.0004670016742
0.0004413544363
0.0004811351789
0.0004774834055
0.0005082493966
0.0004530614953
0.0004069774831
0.0004978069964
0.0003414186851
0.0002622992045
0.0003786262134
0.0001790971102
0.0001033913744
0.0001821882179
4.58695055e-05
1.228673563e-05
2.682373442e-05
2.299723247e-06
2.309291216e-06
1.871861251e-06
2.795676279e-06
4.299189728e-06
2.711850542e-06
7.657123475e-06
1.309795544e-05
9.00935232e-06
1.967105686e-05
2.679412183e-05
2.061053044e-05
3.502598789e-05
4.47584167e-05
3.584410875e-05
5.626160276e-05
6.9711747e-05
5.767658317e-05
8.516996897e-05
0.0001025618623
8.761778431e-05
0.0001216599373
0.0001420837813
0.0001253212416
0.000163322109
0.0001847302284
0.0001676656332
0.0002053869928
0.0002237701331
0.0002086036818
0.0002376141634
0.0002446277008
0.0002373040197
0.0002439528706
0.000236864237
0.0002375830682
0.0002255912315
0.0002111020319
0.0002137581304
0.0001926177784
0.0001718810461
0.0001734631052
0.0001505512181
0.0001330516087
0.000127441414
0.0001237660422
0.0001245211741
0.0001006892661
0.0001347646016
0.0001529372153
0.0001123095152
0.0001773479695
0.000206494979
0.0001545745408
0.0002390963376
0.0002739473823
0.0002171258595
0.0003097213927
0.000344809707
0.0002925713921
0.0003772405573
0.0004046973753
0.0003705652777
0.0004246341196
0.0004344936879
0.0004331127641
0.0004320228813
0.0004156643989
0.0004556700641
0.000384978955
0.0003410178693
0.0004161307596
0.0002865355321
0.000225917077
0.0003114057311
0.0001647186711
0.0001087964142
0.000172429728
6.313230751e-05
3.064285026e-05
5.689729112e-05
1.140047856e-05
2.713240208e-06
5.673439065e-06
4.074465123e-06
4.864321801e-06
3.204896397e-06
6.859367929e-06
1.051882527e-05
6.922395215e-06
1.615340712e-05
2.364555688e-05
1.796602018e-05
3.246149156e-05
4.231332621e-05
3.402007862e-05
5.343449525e-05
6.613580996e-05
5.487596759e-05
8.06079667e-05
9.687039535e-05
8.283839987e-05
0.0001147801611
0.0001340622421
0.0001181471712
0.0001543785971
0.0001754474717
0.0001589530714
0.0001971138963
0.0002190437193
0.0002022105416
0.0002397248866
0.000255530051
0.0002396034964
0.0002622892284
0.0002599602594
0.0002503950473
0.0002542110459
0.0002487217531
0.0002394348242
0.0002381985518
0.0002195045669