/*--------------------------------*- C++ -*----------------------------------*\
| =========                 |                                                 |
| \\      /  F ield         | OpenFOAM: The Open Source CFD Toolbox           |
|  \\    /   O peration     | Version:  2.1.x                                 |
|   \\  /    A nd           | Web:      www.OpenFOAM.org                      |
|    \\/     M anipulation  |                                                 |
\*---------------------------------------------------------------------------*/
FoamFile
{
    version     2.0;
    format      ascii;
    class       surfaceScalarField;
    location    "1.5";
    object      phi;
}
// * * * * * * * * * * * * * * * * * * * * * * * * * * * * * * * * * * * * * //

dimensions      [1 1 -1 0 0 0 0];

internalField   nonuniform List<scalar> 
5536
(
1.270727523e-12
-9.911559206e-13
-1.134021409e-12
7.83910601e-13
-9.847003785e-13
-2.701719124e-13
2.423863934e-18
-5.948868182e-19
-3.26290704e-18
4.033164847e-18
-2.444231512e-18
-3.880568656e-18
1.209788105e-20
-9.200948004e-18
-1.402266454e-12
-5.828454969e-12
5.675811497e-12
-1.352907431e-12
-5.606672808e-12
1.541266088e-12
3.953741445e-12
-1.22196362e-12
-3.938478755e-12
1.137517253e-12
3.942268932e-12
-1.190790492e-12
-3.733881005e-12
1.155754657e-12
3.415913744e-12
-1.593584535e-12
-2.882136783e-12
1.969616835e-12
4.4080007e-12
2.234288332e-12
-8.519003016e-12
-5.100550506e-19
2.050430931e-11
6.071354583e-11
-8.067384286e-11
-5.828314028e-18
3.678537759e-10
1.069933574e-09
-1.435240401e-09
-1.05486023e-17
4.649961494e-09
8.53774079e-09
-1.317545577e-08
-1.466586095e-15
3.4103904e-08
5.095263825e-08
-8.499439015e-08
2.11727383e-11
3.17680086e-07
-5.29274925e-07
2.120201684e-07
5.618563043e-07
9.185197487e-07
-5.731704903e-07
-2.880928385e-12
-3.532049814e-12
2.738148708e-12
4.136124394e-12
-1.734732711e-12
-4.005570972e-12
1.275014595e-12
4.034234925e-12
-9.235588818e-13
-3.767615207e-12
9.282534578e-13
3.706741707e-12
-6.086741004e-13
-3.77837399e-12
8.26286901e-13
4.127322648e-12
8.787460073e-14
-4.880608517e-12
1.139871624e-12
6.450829175e-12
3.177302697e-12
-1.055029228e-11
-3.285098531e-12
1.864389817e-11
3.400682719e-11
-4.876880732e-11
-5.558055237e-11
1.725764693e-10
5.133430537e-10
-6.278280367e-10
-8.804212641e-10
1.948318231e-09
4.151004698e-09
-5.210113797e-09
-6.806091251e-09
1.239016878e-08
2.131181259e-08
-2.686337075e-08
-3.526659856e-08
5.397341511e-08
8.275585772e-08
-1.013481638e-07
-1.482016156e-07
1.781996396e-07
2.605797402e-07
-2.902375126e-07
-5.32391062e-07
4.227017031e-07
6.191936508e-07
-5.087670587e-07
-7.798219582e-07
4.103307335e-07
6.043561369e-07
-2.343353768e-07
-1.049338811e-10
1.250142554e-10
8.501335402e-12
-5.840774069e-11
-2.491912271e-14
4.347098852e-16
2.214520279e-14
6.271011763e-12
-4.711701838e-12
-5.37740968e-12
2.250439806e-12
3.94055561e-12
-1.47189099e-12
-3.863310097e-12
1.110018766e-12
4.196861321e-12
-1.03568295e-13
-4.860109604e-12
1.105025217e-13
5.636500783e-12
1.056404446e-12
-6.54514633e-12
-7.109629365e-13
7.802410221e-12
3.07489703e-12
-9.896135646e-12
-3.409786181e-12
1.394425218e-11
1.185465585e-11
-2.191514745e-11
-1.859347639e-11
4.57974597e-11
1.099254038e-10
-1.357366176e-10
-2.50529297e-10
4.431230689e-10
1.098864066e-09
-1.286927481e-09
-2.236712396e-09
3.292026533e-09
6.487425567e-09
-7.528624467e-09
-1.206945355e-08
1.56824817e-08
2.662814233e-08
-3.01981389e-08
-4.723561483e-08
5.429556778e-08
8.467800905e-08
-9.161574411e-08
-1.461571006e-07
1.45133415e-07
2.162283769e-07
-2.14903584e-07
-3.599756371e-07
2.941000845e-07
4.301759118e-07
-3.637203007e-07
-6.208301805e-07
3.905617652e-07
5.712665403e-07
-3.402848443e-07
-4.436159051e-07
2.144109809e-07
3.138716465e-07
-8.434738679e-08
-2.146543771e-12
4.777813088e-12
6.357577908e-13
-3.800481744e-12
2.390891978e-13
1.470700465e-12
-1.715207063e-12
1.514002509e-14
2.948140655e-11
-2.760366279e-11
1.834225893e-12
-3.446370483e-12
-1.033255524e-11
-1.029639127e-11
1.27222315e-11
1.569128165e-11
-1.011995414e-11
-9.64765309e-12
3.138538545e-12
6.983761311e-12
-1.129984269e-12
-6.106895466e-12
2.132159055e-13
5.99732083e-12
1.159699829e-12
-6.228068991e-12
-1.041816557e-12
6.838055079e-12
2.588992758e-12
-7.884130439e-12
-2.850789937e-12
9.791796598e-12
6.867338075e-12
-1.339627019e-11
-8.688888812e-12
1.986110009e-11
2.422988533e-11
-3.464467513e-11
-4.800658438e-11
8.3825943e-11
2.179855337e-10
-2.515508593e-10
-5.041862114e-10
7.139142016e-10
1.609574421e-09
-1.812851242e-09
-3.309301703e-09
4.138249765e-09
7.803737387e-09
-8.614798984e-09
-1.465025269e-08
1.657318901e-08
2.789242621e-08
-2.976767857e-08
-4.89644303e-08
5.027496746e-08
7.897547331e-08
-8.016749252e-08
-1.311512732e-07
1.208177593e-07
1.823175166e-07
-1.71722665e-07
-2.829358571e-07
2.289574835e-07
3.380800838e-07
-2.836249053e-07
-4.661238743e-07
3.213940986e-07
4.703634624e-07
-3.249855467e-07
-4.958702422e-07
2.821740751e-07
4.120937273e-07
-1.978620477e-07
-2.160712858e-07
1.009661353e-07
1.454529921e-07
-3.018349421e-08
-8.143026043e-13
1.348862351e-11
1.754705075e-12
-1.440290804e-11
7.157405245e-12
1.571195878e-11
-1.682740762e-11
-5.162792923e-12
2.777499433e-11
5.074568863e-13
-2.426166325e-11
3.358224543e-12
6.769180853e-12
-8.177665372e-12
-3.207349344e-12
7.368847747e-12
-1.77041759e-12
-3.345965364e-12
1.840258812e-11
2.581880599e-11
-1.417030284e-11
-2.238517538e-11
7.164094078e-12
1.868610172e-11
-4.184414161e-12
-1.407364126e-11
-1.089653815e-12
1.033736982e-11
2.992730055e-12
-8.508740238e-12
-2.662039849e-12
8.144170583e-12
4.937307669e-12
-9.213668954e-12
-5.520531881e-12
1.194858142e-11
1.116590703e-11
-1.689949279e-11
-1.526646146e-11
2.582784805e-11
3.979569512e-11
-4.927390729e-11
-9.014598732e-11
1.283802553e-10
3.229915861e-10
-3.582286782e-10
-7.423630847e-10
9.21867128e-10
1.975579197e-09
-2.147115816e-09
-4.013275524e-09
4.559401988e-09
8.404477724e-09
-8.930260035e-09
-1.552615642e-08
1.63049248e-08
2.725250848e-08
-2.798194407e-08
-4.686080798e-08
4.540600643e-08
7.14896312e-08
-6.992307924e-08
-1.152717752e-07
1.023383732e-07
1.554314561e-07
-1.422696856e-07
-2.330769166e-07
1.873453097e-07
2.786077491e-07
-2.324751659e-07
-3.7655356e-07
2.696810711e-07
3.964682629e-07
-2.890305001e-07
-4.494263055e-07
2.812913826e-07
4.110981931e-07
-2.423875701e-07
-3.308452733e-07
1.780141354e-07
2.58097426e-07
-1.049189214e-07
-9.597073191e-08
4.464270137e-08
6.208089993e-08
-1.067452656e-08
-1.7392198e-12
3.050834361e-11
-3.565368455e-13
-2.806909491e-11
2.431231084e-11
1.345619905e-11
-1.839119852e-11
-9.170272033e-12
1.635993182e-11
5.034342531e-12
-7.188017758e-12
-1.440880899e-12
7.742276021e-13
-1.417941347e-12
-2.234737024e-15
1.226997737e-12
3.224552502e-13
-4.413293139e-13
-1.663456007e-15
1.609413072e-13
-1.156245192e-15
-5.398334175e-14
1.027949984e-11
-4.957819409e-12
-1.801917187e-11
1.77371396e-11
1.023000133e-11
-6.714802287e-12
-1.686646622e-11
1.908194494e-12
1.477566585e-11
9.829706766e-14
-1.230222988e-11
-5.041218981e-12
1.138139847e-11
8.043261656e-12
-1.178700355e-11
-8.991884227e-12
1.443143843e-11
1.584405357e-11
-1.994799026e-11
-2.224226036e-11
3.125579954e-11
5.715915729e-11
-6.467975279e-11
-1.340691406e-10
1.679247004e-10
4.069947644e-10
-4.372376539e-10
-9.225780633e-10
1.050315111e-09
2.187919143e-09
-2.306602898e-09
-4.386897484e-09
4.663099139e-09
8.507403743e-09
-8.761920188e-09
-1.546777337e-08
1.543762544e-08
2.576652998e-08
-2.568717228e-08
-4.342210604e-08
4.057988258e-08
6.402537187e-08
-6.107882352e-08
-1.009570102e-07
8.775285658e-08
1.337842495e-07
-1.203782237e-07
-1.964405871e-07
1.574712285e-07
2.351865903e-07
-1.958730851e-07
-3.151222326e-07
2.305988812e-07
3.402522167e-07
-2.552360051e-07
-3.985765667e-07
2.631336612e-07
3.85421466e-07
-2.494238756e-07
-3.627419195e-07
2.134545994e-07
3.10432829e-07
-1.607040133e-07
-1.963935456e-07
1.0238274e-07
1.461017957e-07
-5.188603059e-08
-3.930224635e-08
1.866549797e-08
2.426033492e-08
-3.5873921e-09
1.327227834e-12
1.718154596e-11
-1.149535593e-12
-1.681925315e-11
1.069561509e-11
1.0017982e-11
-4.738346741e-12
-4.221451306e-12
1.549596827e-12
1.075105731e-12
-1.433928889e-13
-1.164836224e-13
1.057035559e-16
5.805862843e-17
-2.526509419e-18
8.864288542e-17
1.854323261e-16
-5.694301926e-17
-1.388262884e-16
1.008836408e-16
4.034642303e-16
-2.190820078e-16
2.616827948e-16
-1.779619789e-16
-3.588097662e-12
-1.650645691e-11
4.216912808e-12
1.299338991e-11
-2.606006439e-12
-1.204704894e-11
4.12237096e-12
1.19372197e-11
-2.216529448e-12
-1.232617339e-11
-3.2754074e-12
1.432613209e-11
7.082252164e-12
-1.611193707e-11
-1.270474758e-11
1.792696635e-11
1.983932454e-11
-2.280743755e-11
-2.99837389e-11
3.631919551e-11
7.354323609e-11
-7.780087796e-11
-1.715187917e-10
1.95832343e-10
4.629886353e-10
-4.831836116e-10
-1.034842911e-09
1.104980755e-09
2.267960762e-09
-2.328332591e-09
-4.497593621e-09
4.547463465e-09
8.272401963e-09
-8.300083928e-09
-1.485878375e-08
1.426572352e-08
2.387701299e-08
-2.323607974e-08
-3.963714524e-08
3.604215037e-08
5.711678486e-08
-5.342499371e-08
-8.856469405e-08
7.583816861e-08
1.160932362e-07
-1.031867069e-07
-1.680415428e-07
1.345241149e-07
2.016061229e-07
-1.677885938e-07
-2.688954933e-07
1.996740907e-07
2.954399526e-07
-2.257853924e-07
-3.530972208e-07
2.412208866e-07
3.54036171e-07
-2.416433104e-07
-3.604822205e-07
2.246653396e-07
3.274871257e-07
-1.911939756e-07
-2.586702986e-07
1.461207917e-07
2.104404944e-07
-9.75850848e-08
-1.063768418e-07
5.465800642e-08
7.581712092e-08
-2.398445442e-08
-1.451577045e-08
7.21282436e-09
8.348524981e-09
-1.028616553e-09
9.877582096e-13
8.125573383e-12
-7.275678196e-13
-7.687367761e-12
1.783837366e-12
2.240802698e-12
-6.308365896e-13
-2.025880999e-13
3.38032848e-14
2.99357374e-14
-2.150750174e-14
-8.801947789e-15
5.087923108e-19
2.66629559e-19
-5.83834848e-20
5.643155291e-20
2.259694866e-16
-2.215953052e-18
-4.544998718e-16
1.397665644e-16
1.370982148e-16
-1.585393995e-16
-9.28488969e-17
8.736407614e-17
9.793057295e-17
-3.225649612e-19
4.738750495e-17
-4.542961297e-17
-8.205042016e-13
8.459251993e-12
2.761571018e-12
-1.004234514e-11
1.668735098e-12
2.41720026e-11
1.379629892e-11
-5.148569589e-11
-2.442430373e-12
8.928694938e-11
4.73595637e-11
-1.151209301e-10
-1.131113919e-11
1.080293226e-10
2.635184394e-11
-1.011395715e-10
-4.021368839e-11
1.024738418e-10
6.878389688e-11
-1.239077326e-10
-1.989546522e-10
2.205371596e-10
4.781919804e-10
-4.988915907e-10
-1.084199477e-09
1.100272259e-09
2.245056753e-09
-2.250941197e-09
-4.415714399e-09
4.290233328e-09
7.819765433e-09
-7.67213147e-09
-1.392624955e-08
1.296047299e-08
2.181335693e-08
-2.080178047e-08
-3.584144496e-08
3.186802688e-08
5.082291924e-08
-4.676022854e-08
-7.790765774e-08
6.586684426e-08
1.013874446e-07
-8.91853537e-08
-1.453160006e-07
1.161135005e-07
1.747329573e-07
-1.452659879e-07
-2.324229121e-07
1.743602006e-07
2.587181101e-07
-2.002719351e-07
-3.134978247e-07
2.193382041e-07
3.225682895e-07
-2.27933654e-07
-3.444038639e-07
2.233186187e-07
3.261351532e-07
-2.045699042e-07
-2.899209232e-07
1.732865323e-07
2.507415497e-07
-1.337366665e-07
-1.674724107e-07
9.213124472e-08
1.305277352e-07
-5.498933025e-08
-5.285202475e-08
2.714070162e-08
3.596982531e-08
-1.01974728e-08
-4.561370801e-09
2.429537038e-09
2.328071595e-09
-1.881340461e-10
2.031382132e-13
1.986878773e-12
3.23499609e-13
-1.879595697e-12
1.81610254e-13
2.961932359e-13
-3.998565373e-19
-3.295236093e-14
8.978205248e-15
1.348856835e-14
-3.770753833e-18
-1.945115411e-15
4.138656874e-22
2.966841244e-22
1.085750971e-21
-2.558019552e-22
9.61130643e-16
-3.727891775e-22
2.767034869e-15
-4.579486491e-15
-6.380682635e-17
2.704094145e-14
1.435725767e-13
-1.549732826e-13
-4.687730793e-18
8.845761741e-13
4.601525631e-12
-4.534933404e-12
9.222350699e-11
1.188373149e-11
2.408840152e-11
-1.155665389e-10
9.06805622e-11
-2.57982012e-11
4.412840372e-11
-9.483532515e-11
-3.661524494e-11
1.037032579e-10
4.924579317e-11
-1.096690472e-10
-4.678463618e-11
1.104263708e-10
5.366026949e-11
-1.084406266e-10
-4.47742044e-11
1.1428928e-10
7.792523356e-11
-1.429614585e-10
-1.6194779e-10
2.346382142e-10
4.110583612e-10
-4.898551449e-10
-1.063219445e-09
1.054657195e-09
2.128340663e-09
-2.112936972e-09
-4.201811703e-09
3.954266464e-09
7.237557865e-09
-6.968231795e-09
-1.281912314e-08
1.162952013e-08
1.971184619e-08
-1.847877969e-08
-3.217752163e-08
2.807616565e-08
4.511236748e-08
-4.092896964e-08
-6.865124444e-08
5.738577076e-08
8.891712084e-08
-7.750688025e-08
-1.266633119e-07
1.009180473e-07
1.526519846e-07
-1.266722206e-07
-2.027986483e-07
1.531561865e-07
2.280771144e-07
-1.780934858e-07
-2.791575904e-07
1.987014325e-07
2.929148526e-07
-2.120245062e-07
-3.228887178e-07
2.154602724e-07
3.152756234e-07
-2.073799365e-07
-3.01431835e-07
1.87729901e-07
2.724972734e-07
-1.583891716e-07
-2.12250256e-07
1.230616977e-07
1.7609079e-07
-8.663492822e-08
-9.968517542e-08
5.400546682e-08
7.45951983e-08
-2.879482635e-08
-2.383614718e-08
1.239459152e-08
1.530460015e-08
-3.831432961e-09
-1.085316472e-09
5.672479522e-10
5.817037455e-10
-6.277384395e-11
-2.558448255e-13
1.489344951e-10
3.368026957e-10
-4.797289184e-10
-5.160849878e-18
1.349121827e-09
1.932529129e-09
-3.270938287e-09
-3.982638245e-17
7.047464835e-09
6.939334161e-09
-1.396473128e-08
-1.702934714e-16
2.611951947e-08
2.090993036e-08
-4.697154275e-08
-7.149352596e-15
8.228258714e-08
5.957520369e-08
-1.416997886e-07
-2.591680237e-13
2.413878652e-07
1.67437717e-07
-4.084019463e-07
-5.724146656e-12
6.878717776e-07
4.681301193e-07
-1.154934659e-06
-5.678946617e-11
1.29601694e-06
-3.226798005e-06
1.933706616e-06
-7.843398247e-11
1.508723443e-10
-1.321796276e-10
1.182645629e-10
-6.172738869e-11
7.209044024e-11
-1.116867987e-10
-6.104970597e-11
1.123388735e-10
7.251650233e-11
-1.181816102e-10
-6.797385322e-11
1.298835914e-10
9.832218753e-11
-1.561603471e-10
-1.626242697e-10
2.336161056e-10
3.769409234e-10
-4.553720473e-10
-9.463709923e-10
9.643632111e-10
1.911225943e-09
-1.930601444e-09
-3.886338881e-09
3.586808084e-09
6.575308106e-09
-6.256724129e-09
-1.163712106e-08
1.034975964e-08
1.765766982e-08
-1.632921082e-08
-2.871662006e-08
2.467392286e-08
3.994226964e-08
-3.582409083e-08
-6.053410807e-08
5.01018397e-08
7.817682731e-08
-6.76142159e-08
-1.109943615e-07
8.81401168e-08
1.34091599e-07
-1.110286217e-07
-1.781824403e-07
1.351173178e-07
2.020885741e-07
-1.587190815e-07
-2.493527055e-07
1.797011988e-07
2.657164511e-07
-1.9566962e-07
-2.996841484e-07
2.043151107e-07
2.996339654e-07
-2.038195114e-07
-3.009504889e-07
1.933314788e-07
2.813647808e-07
-1.733248128e-07
-2.413560839e-07
1.457457478e-07
2.097521299e-07
-1.138228342e-07
-1.433229672e-07
8.148871177e-08
1.145576239e-07
-5.254189412e-08
-5.465209699e-08
2.975710256e-08
3.934750545e-08
-1.438475401e-08
-9.562658159e-09
6.562652602e-09
8.39255309e-09
-5.370905934e-09
-1.624723823e-09
8.78306958e-09
8.725200366e-09
-1.584527122e-08
-4.999913297e-09
2.70721682e-08
2.241442451e-08
-4.440989839e-08
-1.504363302e-08
7.048578677e-08
5.358064734e-08
-1.088624412e-07
-3.95816538e-08
1.642801713e-07
1.185332385e-07
-2.428987981e-07
-9.655027109e-08
3.524448838e-07
2.46825983e-07
-5.020447603e-07
-2.241213566e-07
7.015091421e-07
4.836878242e-07
-9.597681342e-07
-4.93917581e-07
1.281730049e-06
8.774773419e-07
-1.662958889e-06
-1.006460492e-06
2.082165317e-06
1.420964611e-06
-2.49303598e-06
-1.761823414e-06
1.92262447e-06
-2.976625835e-06
2.820388608e-06
-1.028785303e-10
2.41752269e-10
1.274628066e-10
-2.205433241e-10
-8.721197711e-11
2.052309192e-10
9.838002097e-11
-1.964623602e-10
-9.114904955e-11
1.928787979e-10
1.123702263e-10
-2.036724045e-10
-1.607308593e-10
2.645212828e-10
3.208432969e-10
-4.36179515e-10
-8.315399686e-10
8.685828626e-10
1.670857202e-09
-1.726916395e-09
-3.481720499e-09
3.203334015e-09
5.859015114e-09
-5.568818135e-09
-1.043813703e-08
9.165548973e-09
1.569992215e-08
-1.438980693e-08
-2.549973273e-08
2.166123469e-08
3.528067857e-08
-3.137248614e-08
-5.336471393e-08
4.382554953e-08
6.881683247e-08
-5.915958724e-08
-9.759830685e-08
7.726153516e-08
1.182131226e-07
-9.768927233e-08
-1.573087424e-07
1.196007536e-07
1.797119047e-07
-1.417313599e-07
-2.233193876e-07
1.624236819e-07
2.409988803e-07
-1.797450574e-07
-2.766200237e-07
1.917071083e-07
2.818830289e-07
-1.965513016e-07
-2.93330461e-07
1.93080366e-07
2.81675236e-07
-1.810038224e-07
-2.580747947e-07
1.611317903e-07
2.327180706e-07
-1.354213226e-07
-1.791728854e-07
1.067580785e-07
1.511634051e-07
-7.851154593e-08
-9.03547241e-08
5.406472866e-08
7.295547471e-08
-3.654664463e-08
-3.06979669e-08
2.852244889e-08
3.297476509e-08
-3.072634436e-08
-1.555038307e-08
4.243128577e-08
3.593610361e-08
-6.269717713e-08
-2.866897631e-08
9.198501613e-08
6.9240627e-08
-1.323399151e-07
-6.306381499e-08
1.865210006e-07
1.346697358e-07
-2.577323843e-07
-1.299053799e-07
3.494190901e-07
2.46045008e-07
-4.648623822e-07
-2.507785821e-07
6.065505579e-07
4.206555665e-07
-7.75256927e-07
-4.534145643e-07
9.686296924e-07
6.660361114e-07
-1.179414655e-06
-7.574819927e-07
1.393483006e-06
9.544416565e-07
-1.587829911e-06
-1.133479238e-06
1.72949439e-06
1.183843801e-06
-1.77664588e-06
-1.419270742e-06
1.684065422e-06
1.154195786e-06
-1.415900648e-06
-1.206999278e-06
9.704865196e-07
6.620104042e-07
-4.237747669e-07
-1.227359335e-11
-3.604608199e-15
1.12266295e-11
3.975836127e-10
-1.842253685e-10
1.696083976e-10
-3.345493072e-10
-1.041966297e-10
3.066381554e-10
1.228209635e-10
-3.193009593e-10
-1.231628444e-10
3.659571235e-10
2.010679608e-10
-4.75877939e-10
-6.785230122e-10
7.810987788e-10
1.357700204e-09
-1.518912333e-09
-3.047876507e-09
2.833525827e-09
5.13262308e-09
-4.927837848e-09
-9.252092356e-09
8.091466451e-09
1.385934191e-08
-1.266825236e-08
-2.254469801e-08
1.902327497e-08
3.109398022e-08
-2.750872022e-08
-4.701587884e-08
3.841275621e-08
6.060842703e-08
-5.189705677e-08
-8.598835824e-08
6.792934019e-08
1.044461424e-07
-8.621511364e-08
-1.393302512e-07
1.061462772e-07
1.601998752e-07
-1.267656436e-07
-2.004056351e-07
1.467938633e-07
2.186038264e-07
-1.646757463e-07
-2.545059e-07
1.787312288e-07
2.635117997e-07
-1.873538322e-07
-2.816966428e-07
1.892856599e-07
2.767065192e-07
-1.838861699e-07
-2.659085375e-07
1.713544227e-07
2.478203266e-07
-1.52887644e-07
-2.07249737e-07
1.306936086e-07
1.847379378e-07
-1.078875514e-07
-1.284822705e-07
8.827747706e-08
1.162474634e-07
-7.585116373e-08
-6.730258032e-08
7.36615235e-08
7.700058459e-08
-8.320295666e-08
-4.986093725e-08
1.049984693e-07
8.412572797e-08
-1.390174108e-07
-7.464248077e-08
1.85609943e-07
1.352280913e-07
-2.457890458e-07
-1.355623416e-07
3.207668597e-07
2.270972826e-07
-4.116415971e-07
-2.373716782e-07
5.19006322e-07
3.618121905e-07
-6.42417871e-07
-3.898330003e-07
7.797772588e-07
5.382799676e-07
-9.267109798e-07
-5.951442953e-07
1.075978021e-06
7.382442907e-07
-1.217016351e-06
-8.305218363e-07
1.335933864e-06
9.13265186e-07
-1.416139491e-06
-1.027596791e-06
1.440058785e-06
9.82395591e-07
-1.39214042e-06
-1.065855533e-06
1.263209841e-06
8.608430848e-07
-1.055825621e-06
-8.234887162e-07
7.891957341e-07
5.370752005e-07
-5.01302839e-07
-3.387235576e-07
2.444822359e-07
1.646297773e-07
-6.992586999e-08
2.273550053e-13
-6.502478377e-12
6.513307559e-12
-6.8707986e-11
1.799424779e-10
-4.868935741e-10
4.310266652e-10
-1.579157064e-10
1.746920083e-10
-3.984102017e-10
-1.553591919e-10
4.080472698e-10
2.161590698e-10
-4.783323223e-10
-3.892113657e-10
6.880403944e-10
8.30254438e-10
-1.261107288e-09
-2.526693055e-09
2.456695053e-09
4.313976014e-09
-4.327553099e-09
-8.104463931e-09
7.126247304e-09
1.213597392e-08
-1.115040066e-08
-1.984905027e-08
1.672147728e-08
2.73430745e-08
-2.416005534e-08
-4.139050918e-08
3.373952881e-08
5.338753439e-08
-4.563837017e-08
-7.584851788e-08
5.988654893e-08
9.242014949e-08
-7.631536302e-08
-1.236986558e-07
9.452622651e-08
1.431627061e-07
-1.138958512e-07
-1.803788413e-07
1.335889005e-07
1.99185412e-07
-1.525257575e-07
-2.347639808e-07
1.692162035e-07
2.483297224e-07
-1.815839941e-07
-2.69316736e-07
1.874308392e-07
2.720843684e-07
-1.860538437e-07
-2.682295587e-07
1.793348035e-07
2.587460356e-07
-1.694768631e-07
-2.303680276e-07
1.56874628e-07
2.184115076e-07
-1.445549774e-07
-1.702833027e-07
1.360184325e-07
1.688887791e-07
-1.343421039e-07
-1.187563195e-07
1.416185274e-07
1.370309772e-07
-1.596293292e-07
-1.037327348e-07
1.901638462e-07
1.482173757e-07
-2.342501613e-07
-1.376809949e-07
2.921669767e-07
2.09833219e-07
-3.637067689e-07
-2.170137629e-07
4.482322451e-07
3.142984477e-07
-5.446083865e-07
-3.365863609e-07
6.509930738e-07
4.513950086e-07
-7.645153763e-07
-4.912454453e-07
8.809295603e-07
6.064323632e-07
-9.944025736e-07
-6.657156994e-07
1.097487782e-06
7.517224204e-07
-1.181379681e-06
-8.241841738e-07
1.236540191e-06
8.437103465e-07
-1.253699781e-06
-9.086325995e-07
1.225301214e-06
8.329421394e-07
-1.147279364e-06
-8.555633524e-07
1.020851175e-06
6.905655108e-07
-8.539213648e-07
-6.394635994e-07
6.614724442e-07
4.435125914e-07
-4.642740105e-07
-3.268003896e-07
2.854804775e-07
1.871089195e-07
-1.452485245e-07
-7.573903733e-08
5.467175656e-08
3.259353958e-08
-1.141911731e-08
4.943528279e-12
-8.655332044e-12
-1.879398556e-10
1.925487443e-10
-2.533617411e-10
3.561203928e-10
-6.085668723e-10
5.44187554e-10
-2.248113012e-10
3.375995713e-10
-5.52064211e-10
-3.68291401e-10
6.822806633e-10
7.358690129e-10
-1.065551963e-09
-1.705762766e-09
1.949000393e-09
3.133775619e-09
-3.597367161e-09
-6.856497172e-09
6.149409318e-09
1.029513005e-08
-9.746324054e-09
-1.737784279e-08
1.467386668e-08
2.394676962e-08
-2.122653361e-08
-3.640255062e-08
2.967145529e-08
4.70201482e-08
-4.020421533e-08
-6.695213111e-08
5.290663523e-08
8.186918805e-08
-6.771744922e-08
-1.100123583e-07
8.443281181e-08
1.282467429e-07
-1.027554001e-07
-1.629051212e-07
1.223778245e-07
1.827994072e-07
-1.429249843e-07
-2.182467998e-07
1.634728057e-07
2.384503263e-07
-1.816852268e-07
-2.606619661e-07
1.938572432e-07
2.741673225e-07
-1.975262863e-07
-2.717721617e-07
1.948321956e-07
2.7371639e-07
-1.91410561e-07
-2.538381129e-07
1.908550151e-07
2.593153113e-07
-1.930874213e-07
-2.173865126e-07
1.984938181e-07
2.289576576e-07
-2.096584112e-07
-1.814943005e-07
2.267200589e-07
2.070641331e-07
-2.51908198e-07
-1.712087372e-07
2.880575163e-07
2.207213535e-07
-3.370126059e-07
-2.096513661e-07
3.990509872e-07
2.845281266e-07
-4.731192468e-07
-2.960836602e-07
5.572060266e-07
3.885790589e-07
-6.485853507e-07
-4.172518313e-07
7.439245641e-07
5.140223037e-07
-8.392301617e-07
-5.566096881e-07
9.297677039e-07
6.387317122e-07
-1.010080105e-06
-6.909056897e-07
1.074172823e-06
7.347366107e-07
-1.11592829e-06
-7.86168441e-07
1.129697222e-06
7.697159337e-07
-1.111072865e-06
-8.028538327e-07
1.057740985e-06
7.174307033e-07
-9.702923852e-07
-7.126858245e-07
8.528103686e-07
5.745198068e-07
-7.130165048e-07
-5.226712449e-07
5.617895182e-07
3.738775526e-07
-4.119245313e-07
-2.897596679e-07
2.762005426e-07
1.791503236e-07
-1.650606694e-07
-1.009836934e-07
8.444170458e-08
5.120283683e-08
-3.449235447e-08
-1.289196417e-08
9.809671205e-09
4.548143412e-09
-1.443119534e-09
1.999927426e-11
-9.550649439e-11
-1.615720075e-10
2.287787943e-10
-5.437721827e-10
8.724721683e-10
-1.132660707e-09
1.085096102e-09
-5.863338503e-10
1.090602229e-09
-1.304348202e-09
-1.474396624e-09
1.889830697e-09
2.723449839e-09
-3.032579504e-09
-5.212428111e-09
5.01067643e-09
8.04763994e-09
-8.115287881e-09
-1.475982431e-08
1.254545779e-08
2.036034688e-08
-1.844314385e-08
-3.1913431e-08
2.598864718e-08
4.129978491e-08
-3.537451645e-08
-5.911857218e-08
4.673162227e-08
7.256722793e-08
-6.006480183e-08
-9.785942519e-08
7.523074649e-08
1.146635314e-07
-9.196063971e-08
-1.466585078e-07
1.099533152e-07
1.650231741e-07
-1.290551696e-07
-2.020256979e-07
1.494404689e-07
2.203387069e-07
-1.714139601e-07
-2.584265146e-07
1.943471356e-07
2.774571919e-07
-2.152142251e-07
-2.911263646e-07
2.295100294e-07
3.128992796e-07
-2.365011866e-07
-2.863655962e-07
2.429323966e-07
3.123245197e-07
-2.565452858e-07
-2.762826253e-07
2.764339102e-07
3.005520692e-07
-2.979108822e-07
-2.507965659e-07
3.213981942e-07
2.811541343e-07
-3.511760746e-07
-2.451713764e-07
3.893091355e-07
2.947370462e-07
-4.381667939e-07
-2.831521627e-07
4.981277557e-07
3.537370321e-07
-5.677327579e-07
-3.665820467e-07
6.44250079e-07
4.477557885e-07
-7.241470559e-07
-4.77647448e-07
8.034461276e-07
5.536793451e-07
-8.779015959e-07
-5.933241617e-07
9.43104337e-07
6.466463644e-07
-9.945924272e-07
-6.88458021e-07
1.028071994e-06
7.021210605e-07
-1.039746666e-06
-7.357280881e-07
1.026737041e-06
6.985173872e-07
-9.875467923e-07
-7.113637068e-07
9.224799536e-07
6.246035434e-07
-8.339438555e-07
-6.06682352e-07
7.265207738e-07
4.883200276e-07
-6.067590115e-07
-4.393187195e-07
4.826037211e-07
3.201605881e-07
-3.625115192e-07
-2.540356611e-07
2.543371891e-07
1.643805256e-07
-1.641819269e-07
-1.049405575e-07
9.54615682e-08
5.812147853e-08
-4.844584841e-08
-2.417410445e-08
2.045372417e-08
1.048963677e-08
-6.721736038e-09
-1.383872149e-09
1.749885351e-09
3.711735596e-10
-7.397938347e-10
4.198219625e-10
-6.953578468e-10
-1.266517393e-11
3.033184123e-10
-1.398824283e-09
2.117442829e-09
-2.506402924e-09
2.735529477e-09
-1.997545945e-09
3.455738497e-09
-3.47833106e-09
-4.60286139e-09
4.80327965e-09
7.239199716e-09
-6.953849653e-09
-1.175130677e-08
1.033875954e-08
1.644092713e-08
-1.534377911e-08
-2.718068533e-08
2.214119153e-08
3.527851017e-08
-3.073022559e-08
-5.208460664e-08
4.110597764e-08
6.422984259e-08
-5.330227347e-08
-8.723226975e-08
6.731556686e-08
1.030883434e-07
-8.305104209e-08
-1.322273256e-07
1.003533101e-07
1.51008691e-07
-1.191078629e-07
-1.839590863e-07
1.393834293e-07
2.05500563e-07
-1.615703847e-07
-2.397729407e-07
1.863893677e-07
2.649374939e-07
-2.145598862e-07
-2.983965755e-07
2.459734912e-07
3.264501634e-07
-2.788684662e-07
-3.40016772e-07
3.105356908e-07
3.713252886e-07
-3.397585991e-07
-3.452480997e-07
3.674942743e-07
3.767691655e-07
-3.94375676e-07
-3.281166333e-07
4.210797756e-07
3.584630776e-07
-4.506887333e-07
-3.196518897e-07
4.866194995e-07
3.652460602e-07
-5.313712536e-07
-3.527889285e-07
5.847550497e-07
4.143770245e-07
-6.452239943e-07
-4.259089717e-07
7.098801851e-07
4.924013184e-07
-7.749796157e-07
-5.197085813e-07
8.365099008e-07
5.753031727e-07
-8.90467965e-07
-6.088992783e-07
9.330731534e-07
6.385737236e-07
-9.609341031e-07
-6.695830141e-07
9.712111623e-07
6.620595379e-07
-9.618081291e-07
-6.815111162e-07
9.316560915e-07
6.325784928e-07
-8.809232465e-07
-6.322620007e-07
8.111436699e-07
5.479817043e-07
-7.252942831e-07
-5.236547581e-07
6.276774315e-07
4.20811273e-07
-5.236140308e-07
-3.757296554e-07
4.189915013e-07
2.772108562e-07
-3.196491148e-07
-2.230454496e-07
2.307206934e-07
1.488118504e-07
-1.560219292e-07
-1.013693751e-07
9.760524521e-08
5.955974836e-08
-5.558725794e-08
-3.03138257e-08
2.830551032e-08
1.486821408e-08
-1.279129012e-08
-4.10542614e-09
5.468577913e-09
1.550455439e-09
-2.898502586e-09
-3.773266616e-12
2.19054942e-09
-1.323114104e-09
-8.260800018e-10
7.813770644e-10
-7.947575384e-10
-4.13430788e-11
4.058289916e-10
-2.947613645e-09
-3.800831269e-09
5.44678149e-09
-5.683203476e-09
9.059630738e-09
-7.400062566e-09
-1.079440731e-08
9.839283592e-09
1.540606269e-08
-1.33199659e-08
-2.223351293e-08
1.850848234e-08
2.924210772e-08
-2.584654352e-08
-4.470423666e-08
3.538385531e-08
5.555832345e-08
-4.69389207e-08
-7.776647247e-08
6.037739489e-08
9.298626701e-08
-7.573641032e-08
-1.204489004e-07
9.321245233e-08
1.403914511e-07
-1.13191458e-07
-1.724102321e-07
1.363588936e-07
1.992484761e-07
-1.637621522e-07
-2.332702196e-07
1.96540637e-07
2.715951954e-07
-2.352136817e-07
-3.008994322e-07
2.788810395e-07
3.493155967e-07
-3.252088685e-07
-3.640859587e-07
3.714350805e-07
4.079403607e-07
-4.153384771e-07
-4.03576542e-07
4.55159851e-07
4.338188161e-07
-4.895186407e-07
-4.043172158e-07
5.186917058e-07
4.303799719e-07
-5.460075131e-07
-3.925739731e-07
5.765414305e-07
4.301951912e-07
-6.135501101e-07
-4.151542837e-07
6.572129905e-07
4.649980936e-07
-7.058405136e-07
-4.734916191e-07
7.56501322e-07
5.241160877e-07
-8.056567443e-07
-5.465832965e-07
8.495913441e-07
5.834435837e-07
-8.847933602e-07
-6.096044187e-07
9.081698599e-07
6.204520519e-07
-9.172514204e-07
-6.413988573e-07
9.102793914e-07
6.192403376e-07
-8.863561878e-07
-6.27699439e-07
8.45501782e-07
5.725901959e-07
-7.887538656e-07
-5.636457688e-07
7.181560204e-07
4.836059842e-07
-6.367197338e-07
-4.563544129e-07
5.482182117e-07
3.661354629e-07
-4.569240674e-07
-3.250948957e-07
3.672635117e-07
2.419501746e-07
-2.8338591e-07
-1.965533452e-07
2.087699102e-07
1.34111858e-07
-1.458976192e-07
-9.52216815e-08
9.603022782e-08
5.854699404e-08
-5.914430588e-08
-3.33714738e-08
3.406868073e-08
1.814783949e-08
-1.87612698e-08
-6.829647195e-09
1.06799275e-08
3.287032301e-09
-7.109872668e-09
-3.577881255e-10
5.388830735e-09
-2.352497705e-09
-2.710331899e-09
1.658767666e-09
2.566642781e-09
-2.232766877e-09
-2.159189332e-09
8.680168354e-10
-1.502620086e-09
1.752334579e-11
1.176628165e-09
1.2840532e-08
-1.327480536e-08
1.775081566e-08
-1.528087489e-08
-2.109131967e-08
1.855067771e-08
2.785732661e-08
-2.347117979e-08
-3.760298447e-08
3.084723783e-08
4.762747785e-08
-4.111285873e-08
-6.815014692e-08
5.427726792e-08
8.332854932e-08
-7.025252274e-08
-1.108227998e-07
8.924907392e-08
1.334326248e-07
-1.119500537e-07
-1.653147984e-07
1.395219739e-07
1.991688003e-07
-1.735314179e-07
-2.356394076e-07
2.156498724e-07
2.851316456e-07
-2.668107021e-07
-3.229175241e-07
3.258648568e-07
3.847168312e-07
-3.886234489e-07
-4.059170631e-07
4.487748475e-07
4.624535214e-07
-5.008738155e-07
-4.514551726e-07
5.429608004e-07
4.894128726e-07
-5.765820635e-07
-4.613429005e-07
6.046913193e-07
4.867688242e-07
-6.301045386e-07
-4.574959436e-07
6.555125702e-07
4.858363839e-07
-6.835445487e-07
-4.691603771e-07
7.156600085e-07
5.057845641e-07
-7.51014136e-07
-5.097421865e-07
7.870312786e-07
5.446919216e-07
-8.204631287e-07
-5.612590681e-07
8.480219695e-07
5.816118044e-07
-8.667236124e-07
-6.001559685e-07
8.741333144e-07
5.962434089e-07
-8.685182632e-07
-6.084034645e-07