/*--------------------------------*- C++ -*----------------------------------*\
| =========                 |                                                 |
| \\      /  F ield         | OpenFOAM: The Open Source CFD Toolbox           |
|  \\    /   O peration     | Version:  2.1.x                                 |
|   \\  /    A nd           | Web:      www.OpenFOAM.org                      |
|    \\/     M anipulation  |                                                 |
\*---------------------------------------------------------------------------*/
FoamFile
{
    version     2.0;
    format      ascii;
    class       volVectorField;
    location    "1.5";
    object      Uf;
}
// * * * * * * * * * * * * * * * * * * * * * * * * * * * * * * * * * * * * * //

dimensions      [0 1 -1 0 0 0 0];

internalField   nonuniform List<vector> 
2828
(
(-0.104534981 0 -0.2365625112)
(-0.1413725702 0 -0.2928496035)
(-0.1895887699 0 -0.354174248)
(-0.1927754861 0 -0.2968289571)
(-0.1359693246 0 0.1946426335)
(-0.03259636523 0 -0.1094075251)
(-0.03712369582 0 -0.1417868571)
(-0.05385511266 0 -0.1855508325)
(-0.07411551095 0 -0.2275829824)
(-0.1006516843 0 -0.2783683337)
(-0.1230837375 0 -0.3202907832)
(0.5318398309 0 -0.3747945074)
(2.077136017 0 -1.428144064)
(4.909613421 0 -3.378230825)
(6.424700886 0 -4.422756326)
(6.78293363 0 -4.670216639)
(6.869962184 0 -4.691249262)
(-0.1346958047 0 -0.1618991007)
(-0.1335129847 0 -0.1759291598)
(-0.06156403414 0 -0.1719232369)
(-0.05449887722 0 -0.2092781693)
(-0.04551395702 0 -0.2555415657)
(-0.03958303582 0 -0.269802559)
(0.3563539755 0 -0.2698143731)
(1.030027109 0 -0.7079213747)
(2.922394163 0 -2.008079484)
(4.919363154 0 -3.381344166)
(6.131575909 0 -4.215259984)
(6.629311409 0 -4.555699886)
(6.793824311 0 -4.653013745)
(6.840565779 0 -4.652492673)
(0.0285380054 0 -0.9095868208)
(-0.1400394012 0 0.02798199953)
(-0.08662107273 0 -0.1148722862)
(-0.07931133885 0 -0.1895177409)
(-0.02835818523 0 -0.2498439294)
(0.03663404336 0 -0.2881707403)
(0.07524248982 0 -0.3051814988)
(0.2238485924 0 -0.2667313996)
(0.3721911902 0 -0.2602107827)
(1.296671734 0 -0.8903994962)
(2.977036277 0 -2.044904712)
(4.661672412 0 -3.20289196)
(5.808004573 0 -3.990898863)
(6.403627309 0 -4.398451726)
(6.661249125 0 -4.566485167)
(6.759759493 0 -4.609498507)
(6.746092554 0 -4.577555049)
(0.3937959338 0 -1.934821661)
(-0.1306068358 0 0.005572145508)
(-0.06073128709 0 0.01400199962)
(-0.05815929111 0 0.02842977267)
(-0.06034748768 0 -0.08197678565)
(-0.02630010794 0 -0.1273124264)
(0.02240189189 0 -0.1712903666)
(0.06025899552 0 -0.2177393927)
(0.1318909959 0 -0.2403321447)
(0.2345509768 0 -0.1874574252)
(0.452175838 0 -0.3114417939)
(1.378029227 0 -0.9459448973)
(2.852551261 0 -1.958858737)
(4.349229868 0 -2.987335336)
(5.466854144 0 -3.755215555)
(6.137898424 0 -4.214666639)
(6.482465068 0 -4.445065677)
(6.63617864 0 -4.535122681)
(6.670370493 0 -4.534592443)
(6.517116505 0 -4.419291779)
(0.3960674564 0 -1.07648268)
(-0.101361499 0 -0.01873938233)
(-0.05673683049 0 0.002701934928)
(-0.0677470848 0 0.02944081694)
(-0.3618756295 0 0.1558420409)
(-0.06792016953 0 -0.08550166141)
(-0.02770665882 0 -0.09323831684)
(0.02412808488 0 -0.1170938439)
(0.07095746156 0 -0.1566120114)
(0.1589051354 0 -0.1809753051)
(0.2005211497 0 -0.1481047008)
(0.4976938623 0 -0.3417517714)
(1.367482505 0 -0.9384603475)
(2.673379475 0 -1.83539474)
(4.030137055 0 -2.767484286)
(5.120010375 0 -3.516040797)
(5.846536484 0 -4.013727099)
(6.267399151 0 -4.298078585)
(6.481350373 0 -4.434138585)
(6.557898164 0 -4.468847565)
(6.492310056 0 -4.406175277)
(6.031759953 0 -4.090671735)
(0.04998298879 0 -0.3449506709)
(-0.05263742338 0 -0.02221862261)
(-0.0556174389 0 -0.01504878002)
(-0.07976527403 0 0.02481838621)
(-0.5138170659 0 0.2353749262)
(-0.4159114654 0 0.2287556131)
(-0.0651814663 0 -0.1230278498)
(-0.06849904529 0 -0.1181894682)
(-0.006266984399 0 -0.1148599169)
(0.07030189406 0 -0.1228884801)
(0.1439767433 0 -0.1357046739)
(0.1870294006 0 -0.1335271463)
(0.5115575102 0 -0.3509406081)
(1.309293371 0 -0.8983246732)
(2.475801364 0 -1.699400774)
(3.718832923 0 -2.553178373)
(4.777024698 0 -3.279800055)
(5.54054801 0 -3.803014183)
(6.025521407 0 -4.132417668)
(6.298991092 0 -4.312137901)
(6.42129485 0 -4.38265011)
(6.409636132 0 -4.358632054)
(6.17334835 0 -4.186845985)
(5.150848746 0 -3.494600108)
(-0.093920132 0 -0.1533350197)
(-0.0460680533 0 -0.03955141649)
(-0.07733009198 0 -0.05148390035)
(-0.1560316464 0 -0.07448489834)
(-0.6322936524 0 0.3182893504)
(-0.4962379674 0 0.2989033193)
(-0.03271862944 0 -0.1290458491)
(-0.04246100296 0 -0.1529675789)
(-0.05251048994 0 -0.1823827228)
(0.06049810515 0 -0.149129837)
(0.1205887634 0 -0.1079029619)
(0.1797716765 0 -0.1267644613)
(0.5023370547 0 -0.3444530663)
(1.226177184 0 -0.8411238561)
(2.274499476 0 -1.560938228)
(3.419975189 0 -2.347570185)
(4.442823012 0 -3.049799415)
(5.228550329 0 -3.5883631)
(5.765116308 0 -3.953907419)
(6.093927194 0 -4.173470651)
(6.263549987 0 -4.279501917)
(6.298379593 0 -4.289974017)
(6.163615245 0 -4.18582891)
(5.652043884 0 -3.832804962)
(3.864205347 0 -2.622926461)
(-0.07235129922 0 -0.1071275043)
(-0.05024328678 0 -0.07032254763)
(-0.1486339789 0 -0.1281684154)
(-0.493588836 0 -0.2630721963)
(-0.6753564981 0 0.4027509404)
(-0.5996879174 0 0.4100118934)
(-0.2160280681 0 0.1707176963)
(-0.01395214593 0 -0.146170721)
(0.00451551509 0 -0.1793359054)
(0.05130950231 0 -0.186603947)
(0.01378216284 0 -0.2753210882)
(0.1116966286 0 -0.266893416)
(0.4773135917 0 -0.3280281943)
(1.130686965 0 -0.7754604617)
(2.076598639 0 -1.424882649)
(3.135528973 0 -2.151975342)
(4.120088343 0 -2.827830393)
(4.916343839 0 -3.373709561)
(5.493122662 0 -3.767381149)
(5.871254558 0 -4.022093557)
(6.087361093 0 -4.162201322)
(6.166523951 0 -4.205401309)
(6.098033373 0 -4.147123804)
(5.786132853 0 -3.926736078)
(4.886094136 0 -3.313861948)
(2.403799066 0 -1.632663936)
(0.001149504807 0 -0.07177044787)
(-0.04630871656 0 -0.1082077047)
(-0.1004151323 0 -0.2232785716)
(-0.1058231134 0 -0.2502047384)
(0.1701297036 0 -0.1966382898)
(1.515163589 0 -0.5147281414)
(4.532218195 0 -0.86449963)
(0.6774903504 0 0.07586733048)
(0.1272204836 0 -0.2912026165)
(0.1524344346 0 -0.3356674848)
(0.1788043392 0 -0.385430852)
(0.1680719055 0 -0.3607159318)
(0.1863500651 0 -0.3314633739)
(0.4482530631 0 -0.3439933125)
(1.03303906 0 -0.7085286332)
(1.886221723 0 -1.294042542)
(2.866468535 0 -1.967036588)
(3.81057615 0 -2.615061128)
(4.60800986 0 -3.161823567)
(5.214910245 0 -3.576562519)
(5.635745872 0 -3.861525263)
(5.895803389 0 -4.03339421)
(6.017718145 0 -4.107821942)
(6.002120211 0 -4.086890798)
(5.800395207 0 -3.940628261)
(5.24686145 0 -3.559743868)
(3.890622937 0 -2.639477063)
(1.120195886 0 -0.7751814972)
(0.783851518 0 -1.144717767)
(2.293471525 0 -3.363917604)
(4.764230043 0 -6.990001898)
(7.056765893 0 -10.3550375)
(8.438919547 0 -12.38454802)
(9.060412678 0 -13.29738704)
(9.296692539 0 -13.64202863)
(9.378522823 0 -13.75026804)
(0.158412828 0 -0.3135361437)
(0.1771726417 0 -0.3412223752)
(0.1996673137 0 -0.364911294)
(0.2213436909 0 -0.3343324603)
(0.4171565051 0 -0.3374471265)
(0.9440597129 0 -0.6516652989)
(1.708119399 0 -1.171691052)
(2.613903164 0 -1.793490095)
(3.515624569 0 -2.412381824)
(4.306634258 0 -2.954798942)
(4.934730604 0 -3.384388005)
(5.391532531 0 -3.694739576)
(5.692019166 0 -3.895556608)
(5.854728519 0 -3.999497848)
(5.885415993 0 -4.011511533)
(5.758805141 0 -3.916673556)
(5.383798565 0 -3.657026709)
(4.5214402 0 -3.093879532)
(2.84734067 0 -2.586976319)
(3.809875948 0 -5.580529856)
(5.596974366 0 -8.214133275)
(7.067849152 0 -10.37391922)
(8.108909342 0 -11.9031188)
(8.7406974 0 -12.83117291)
(9.080302934 0 -13.32834584)
(9.250599642 0 -13.57212217)
(9.334753455 0 -13.68109854)
(9.376104499 0 -13.71909408)
(0.2081800613 0 -0.3709664224)
(0.2387431516 0 -0.4155602827)
(0.277154775 0 -0.4422868233)
(0.3973068435 0 -0.3812183584)
(0.8566502756 0 -0.5967737305)
(1.547736928 0 -1.062269555)
(2.379820308 0 -1.632682761)
(3.236766231 0 -2.220819899)
(4.014780272 0 -2.75437562)
(4.656065046 0 -3.193254742)
(5.14221254 0 -3.524288184)
(5.478982438 0 -3.750936423)
(5.680037649 0 -3.882453492)
(5.752697349 0 -3.924661259)
(5.683718491 0 -3.871605495)
(5.41687854 0 -3.700289959)
(4.820236527 0 -3.461682086)
(4.194685126 0 -4.513726401)
(5.438786261 0 -7.895827653)
(6.780573384 0 -9.951752831)
(7.725919351 0 -11.33970848)
(8.378447783 0 -12.2968795)
(8.795964612 0 -12.90721391)
(9.046775693 0 -13.26933223)
(9.191275903 0 -13.47001062)
(9.271525786 0 -13.57008563)
(9.30988092 0 -13.60481263)
(9.307597251 0 -13.58334968)
(0.03430378921 0 1.304682481)
(0.2903803371 0 -0.8443564592)
(0.3405175286 0 -1.02193626)
(0.4374749677 0 -0.7791365832)
(0.7784487816 0 -0.5589146891)
(1.403993534 0 -0.9650262782)
(2.167050662 0 -1.486707266)
(2.975758182 0 -2.041560934)
(3.734789047 0 -2.562142271)
(4.381974157 0 -3.005250622)
(4.891004522 0 -3.352364912)
(5.259602707 0 -3.601600985)
(5.496086904 0 -3.758904135)
(5.607275655 0 -3.83020104)
(5.586138334 0 -3.819483721)
(5.399712992 0 -3.755399663)
(5.035842588 0 -3.95889407)
(5.071742691 0 -5.89607234)
(6.240461068 0 -8.981549053)
(7.287791899 0 -10.69033738)
(7.979223308 0 -11.70841273)
(8.455956369 0 -12.40550078)
(8.775120212 0 -12.86897829)
(8.979475416 0 -13.16066467)
(9.103686699 0 -13.33095576)
(9.170851037 0 -13.41453014)
(9.189893217 0 -13.42723769)
(9.146363997 0 -13.35210127)
(8.933988451 0 -13.03569052)
(-0.1570593056 0 -0.2625307221)
(0.4124785318 0 -0.9954843281)
(0.4292410408 0 -0.9952228007)
(0.4828935274 0 -0.914243814)
(0.7308329007 0 -0.6202449336)
(1.281658945 0 -0.8862584734)
(1.976547465 0 -1.356365637)
(2.734640679 0 -1.876035006)
(3.468839241 0 -2.379592985)
(4.115182758 0 -2.822348679)
(4.640433185 0 -3.181540804)
(5.032263987 0 -3.451139662)
(5.287519176 0 -3.633795875)
(5.429643809 0 -3.735435506)
(5.476368142 0 -3.780481737)
(5.37148936 0 -3.882724273)
(5.249122072 0 -4.579539366)
(5.637933799 0 -6.849721204)
(6.670414385 0 -9.538977317)
(7.526400585 0 -11.02623464)
(8.07877765 0 -11.85009642)
(8.457060519 0 -12.40150765)
(8.716876833 0 -12.77655123)
(8.887822787 0 -13.01865361)
(8.990881372 0 -13.15885301)
(9.037877559 0 -13.21567409)
(9.027598646 0 -13.18946359)
(8.933020127 0 -13.04303091)
(8.644880128 0 -12.61783042)
(7.622848063 0 -11.12394502)
(-0.1260760847 0 -0.2000704674)
(0.4896065621 0 -0.992641774)
(0.5198181039 0 -0.8654869548)
(0.7270605912 0 -0.7148078847)
(1.200486788 0 -0.8622773049)
(1.812110539 0 -1.247856316)
(2.514586376 0 -1.725245957)
(3.218795215 0 -2.208037456)
(3.858373469 0 -2.646471586)
(4.39600343 0 -3.016029536)
(4.81630838 0 -3.317440054)
(5.104801206 0 -3.575013889)
(5.24674965 0 -3.760917528)
(5.310659637 0 -3.792499724)
(5.364492024 0 -4.090820923)
(5.463747914 0 -5.237174574)
(6.01479483 0 -7.523063429)
(6.915047587 0 -9.844720314)
(7.63674059 0 -11.16788072)
(8.101814608 0 -11.87823985)
(8.416423627 0 -12.33668785)
(8.633288464 0 -12.64819734)
(8.775191635 0 -12.847937)
(8.854706691 0 -12.95492162)
(8.875816543 0 -12.97611923)
(8.82941541 0 -12.89972308)
(8.679925526 0 -12.67509063)
(8.321928395 0 -12.14877606)
(7.418995513 0 -10.82910734)
(4.75522581 0 -6.942709495)
(-0.1335179553 0 -0.1025018535)
(0.6369633626 0 -0.9827481806)
(0.7845277324 0 -0.8282968253)
(1.16678088 0 -0.9096352463)
(1.68971129 0 -1.193216617)
(2.319550528 0 -1.596939329)
(2.985793553 0 -2.048651284)
(3.613073403 0 -2.478642529)
(4.156236597 0 -2.851769069)
(4.596540955 0 -3.159432072)
(4.933667528 0 -3.425089785)
(5.177902923 0 -3.712348329)
(5.341137611 0 -4.017079103)
(5.438595802 0 -4.423117712)
(5.66190057 0 -5.801324966)
(6.272501403 0 -8.011412392)
(7.056709341 0 -10.01609893)
(7.676571763 0 -11.20334268)
(8.079380174 0 -11.83823468)
(8.347692989 0 -12.2311919)
(8.529471933 0 -12.49137461)
(8.643558442 0 -12.65091541)
(8.696986214 0 -12.72097059)
(8.687895848 0 -12.69977177)
(8.601128267 0 -12.56621436)
(8.395692207 0 -12.26122097)
(7.971977603 0 -11.63957152)
(7.083545231 0 -10.3411916)
(5.128386596 0 -7.488165332)
(1.348584542 0 -2.02861324)
(-0.1755700622 0 -0.04418112176)
(0.8764587436 0 -0.9847281605)
(1.198827534 0 -1.014045007)
(1.627781611 0 -1.214999843)
(2.160853563 0 -1.519863364)
(2.775141451 0 -1.911345067)
(3.382327426 0 -2.322379194)
(3.928658722 0 -2.699942042)
(4.386913413 0 -3.026709335)
(4.750863584 0 -3.321957247)
(5.030637282 0 -3.655426221)
(5.26800662 0 -4.14815423)
(5.531331282 0 -4.925780661)
(5.873659084 0 -6.284350775)
(6.44364417 0 -8.334384944)
(7.135357366 0 -10.10767194)
(7.673194302 0 -11.17519661)
(8.026484084 0 -11.75218836)
(8.257543835 0 -12.09462587)
(8.408245857 0 -12.31001532)
(8.494561884 0 -12.42959394)
(8.519679283 0 -12.4593585)
(8.477322093 0 -12.39091685)
(8.347839208 0 -12.19628653)
(8.087130758 0 -11.81155649)
(7.601648058 0 -11.10030187)
(6.693753618 0 -9.77431356)
(4.962975754 0 -7.254657095)
(1.883131434 0 -2.858557201)
(-0.184166576 0 -0.1725408275)
(-0.1592825365 0 -0.05926453154)
(1.161711223 0 -1.047432919)
(1.610419597 0 -1.261404765)
(2.063511835 0 -1.515635187)
(2.59647646 0 -1.822791223)
(3.175064043 0 -2.191688318)
(3.720053197 0 -2.567923764)
(4.199762514 0 -2.925189516)
(4.60443203 0 -3.289959443)
(4.944542899 0 -3.758412143)
(5.247848191 0 -4.457798215)
(5.576847797 0 -5.469620717)
(6.014089924 0 -6.849840235)
(6.572192588 0 -8.565711029)
(7.16963062 0 -10.13750368)
(7.641045283 0 -11.10621968)
(7.951492804 0 -11.63269442)
(8.149929659 0 -11.93254868)
(8.271542931 0 -12.10671294)
(8.32967983 0 -12.18584966)
(8.324671015 0 -12.17254124)
(8.246890921 0 -12.05344292)
(8.073397877 0 -11.79557103)
(7.75832948 0 -11.33234036)
(7.212925212 0 -10.53463011)
(6.264928679 0 -9.15336331)
(4.581928954 0 -6.72150122)
(1.781354943 0 -2.804383442)
(-0.1525832051 0 -0.3075467573)
(-0.1471126793 0 -0.2368010548)
(-0.1686466842 0 -0.206444899)
(2.011521213 0 -1.518615684)
(2.477852244 0 -1.800877821)
(3.006629281 0 -2.116771993)
(3.550851526 0 -2.484525326)
(4.055122737 0 -2.885952457)
(4.506057308 0 -3.347706148)
(4.909801913 0 -3.955547712)
(5.292249495 0 -4.812980998)
(5.685786609 0 -5.951975224)
(6.135987135 0 -7.335430081)
(6.659677276 0 -8.822896717)
(7.177934565 0 -10.13242823)
(7.587815204 0 -11.00753098)
(7.859627026 0 -11.48784588)
(8.027605804 0 -11.74881985)
(8.120965198 0 -11.88357446)
(8.150389417 0 -11.92161639)
(8.113949228 0 -11.86321212)
(7.999599588 0 -11.69157377)
(7.782536362 0 -11.3709003)
(7.417884774 0 -10.83602936)
(6.828005805 0 -9.974263541)
(5.886835783 0 -8.603943413)
(4.42699354 0 -6.490721411)
(2.400714419 0 -3.605169475)
(0.3586757461 0 -0.8370852683)
(-0.04446796087 0 -0.2310905537)
(-0.1532321516 0 -0.1967828648)
(-0.1022057345 0 -0.3135777653)
(2.408511193 0 -1.784614125)
(2.905433678 0 -2.11370649)
(3.450267471 0 -2.495859341)
(3.989865707 0 -2.966844603)
(4.488113422 0 -3.553821271)
(4.938337378 0 -4.29143291)
(5.360694829 0 -5.21829605)
(5.789007662 0 -6.353819961)
(6.242053926 0 -7.655127225)
(6.717569932 0 -8.988311809)
(7.166782129 0 -10.11934175)
(7.519477169 0 -10.88738741)
(7.754219546 0 -11.32269588)
(7.892726348 0 -11.54650153)
(7.957983545 0 -11.64253218)
(7.958087389 0 -11.63874077)
(7.889065796 0 -11.53348975)
(7.736699677 0 -11.30708188)
(7.473882006 0 -10.92044673)
(7.053123811 0 -10.30511613)
(6.392277589 0 -9.344574291)
(5.351630165 0 -7.852258318)
(3.711274131 0 -5.596032763)
(1.366645355 0 -2.720648714)
(-0.3046913825 0 -0.9604970337)
(-0.3118682939 0 -0.4952023033)
(0.2600191239 0 0.3092007246)
(0.1722995554 0 0.2012514316)
(-0.1397458495 0 -0.3405745596)
(2.895419984 0 -2.166716014)
(3.439837541 0 -2.61794662)
(4.022846725 0 -3.201040567)
(4.55925431 0 -3.908336476)
(5.03469313 0 -4.740895825)
(5.465020982 0 -5.690579992)
(5.88603028 0 -6.761208814)
(6.319458426 0 -7.926405938)
(6.750477739 0 -9.084513839)
(7.138682571 0 -10.06996577)
(7.439672499 0 -10.75153996)
(7.637755438 0 -11.14031043)
(7.7468187 0 -11.32776963)
(7.783413507 0 -11.38475307)
(7.752673375 0 -11.33726222)
(7.647768465 0 -11.18086733)
(7.449882 0 -10.89028522)
(7.122254493 0 -10.41507059)
(6.593162715 0 -9.660891776)
(5.717531942 0 -8.452854864)
(4.236251593 0 -6.528136951)
(2.010213934 0 -3.891780065)
(-0.3790732566 0 -1.413602495)
(-0.8980738692 0 -1.037020038)
(-0.8815371332 0 -1.015406289)
(-0.6704971237 0 -0.8102039677)
(0.5195339523 0 0.348858634)
(0.406957517 0 0.354491998)
(4.126930906 0 -3.540869233)
(4.683609907 0 -4.338014778)
(5.16504612 0 -5.20961195)
(5.592166424 0 -6.152158482)
(5.991236506 0 -7.155454795)
(6.384264692 0 -8.190290964)
(6.764813548 0 -9.179601123)
(7.098260611 0 -10.0127821)
(7.35109325 0 -10.60281802)
(7.512418904 0 -10.94347698)
(7.591003306 0 -11.09394573)
(7.597682304 0 -11.11106533)
(7.534083744 0 -11.01767225)
(7.390257062 0 -10.80684905)
(7.143357 0 -10.44924827)
(6.75230431 0 -9.891220665)
(6.147331811 0 -9.046434552)
(5.220420778 0 -7.794744984)
(3.846181879 0 -6.028569786)
(1.971624059 0 -3.772146028)
(-0.4330423959 0 -1.068188953)
(-0.8414457466 0 -0.9547637334)
(-0.9919937815 0 -1.135205306)
(-1.084620975 0 -1.231546565)
(-1.078823836 0 -1.214178626)
(-0.6845950863 0 -0.8077775454)
(0.4764451633 0 0.3753009519)
(4.819657319 0 -4.765504418)
(5.291253718 0 -5.634087261)
(5.708500276 0 -6.539808292)
(6.089648748 0 -7.476337068)
(6.444464885 0 -8.407515589)
(6.770937589 0 -9.263628486)
(7.049226029 0 -9.962950748)
(7.255504755 0 -10.45464276)
(7.379930459 0 -10.73742276)
(7.426834039 0 -10.84730162)
(7.402465499 0 -10.82381714)
(7.305516626 0 -10.68463946)
(7.124352456 0 -10.4222276)
(6.836183721 0 -10.00867974)
(6.405445863 0 -9.3988071)
(5.782814168 0 -8.533112449)
(4.910589695 0 -7.349854262)
(3.740136564 0 -5.811644629)
(2.236929364 0 -3.905282689)
(0.2958088887 0 -1.500178097)
(-0.5630641788 0 -0.5741245712)
(-0.7189827823 0 -0.7800376345)
(-0.9486708984 0 -1.086372467)
(-1.148669044 0 -1.325029914)
(-1.259593878 0 -1.429322522)
(-1.30046174 0 -1.436167823)
(5.793314656 0 -6.847276516)
(6.158620227 0 -7.71245265)
(6.485922651 0 -8.551336702)
(6.769601895 0 -9.304728054)
(6.996651032 0 -9.901934225)
(7.155626628 0 -10.30685749)
(7.241765181 0 -10.52747213)
(7.25616377 0 -10.59195007)
(7.200594316 0 -10.52697248)
(7.071621007 0 -10.34429604)
(6.857706744 0 -10.03677304)
(6.538938729 0 -9.58121835)
(6.087892685 0 -8.943301767)
(5.472676591 0 -8.084535136)
(4.664216789 0 -6.973787206)
(3.645703877 0 -5.599580755)
(2.403904076 0 -3.9553839)
(0.8362389967 0 -1.926411443)
(-0.4315637987 0 -0.4305116775)
(-0.5302928124 0 -0.5189056305)
(-0.6160880735 0 -0.5978098827)
(-0.7194988343 0 -0.7334858637)
(-1.054767137 0 -1.224575106)
(-1.289619933 0 -1.513005847)
(-1.391541978 0 -1.582294099)
(6.210494596 0 -7.919956387)
(6.49688552 0 -8.63838777)
(6.748724673 0 -9.299992785)
(6.937481989 0 -9.815881106)
(7.054587263 0 -10.15128762)
(7.101515198 0 -10.31422675)
(7.081814544 0 -10.331804)
(6.995151108 0 -10.22503373)
(6.836219082 0 -10.00158181)
(6.594260717 0 -9.655224929)
(6.253166688 0 -9.168158286)
(5.792845327 0 -8.515463693)
(5.192805871 0 -7.67180537)
(4.438979651 0 -6.621221458)
(3.532180848 0 -5.367305018)
(2.491586182 0 -3.934568478)
(1.338590665 0 -2.345728586)
(0.0235339722 0 -0.6000929135)
(-0.3703033666 0 -0.3787279219)
(-0.5239624283 0 -0.5258845117)
(-0.6536489221 0 -0.6446708551)
(-0.741442911 0 -0.7106180192)
(-0.7662567822 0 -0.706901557)
(-0.4014750664 0 -0.1854205941)
(6.710783626 0 -9.284220244)
(6.862440133 0 -9.708561342)
(6.948418858 0 -9.985307673)
(6.961125581 0 -10.09766409)
(6.907797721 0 -10.07021778)
(6.790019522 0 -9.922505195)
(6.602524013 0 -9.660503207)
(6.335438432 0 -9.279050521)
(5.976147775 0 -8.76536353)
(5.510499438 0 -8.102185857)
(4.92530367 0 -7.272477134)
(4.213315174 0 -6.266336795)
(3.380937978 0 -5.090192526)
(2.4546837 0 -3.774721195)
(1.48798737 0 -2.385595789)
(0.6122785488 0 -1.089291823)
(0.1630799001 0 -0.408337608)
(-0.2119546113 0 -0.2286482945)
(-0.4284151931 0 -0.4357158297)
(-0.646929756 0 -0.6542000151)
(-0.799551613 0 -0.79386094)
(-0.8956761198 0 -0.8392505007)
(6.836840398 0 -9.819548472)
(6.819217335 0 -9.879392478)
(6.734640489 0 -9.808509354)
(6.588122721 0 -9.622632512)
(6.372617531 0 -9.323203566)
(6.07838302 0 -8.904071095)
(5.692128959 0 -8.35166734)
(5.195884509 0 -7.644542346)
(4.557525651 0 -6.743997046)
(3.704003527 0 -5.570639118)
(2.493796296 0 -4.005739798)
(0.9593154527 0 -2.208596235)
(-0.246870354 0 -0.9126160427)
(-0.5876944611 0 -0.4760605974)
(-0.5092260025 0 -0.3243243481)
(0.2132042966 0 -0.3812727712)
(0.313007414 0 -0.5424576667)
(0.3592074688 0 -0.3882330347)
(-0.2086263347 0 -0.09214101665)
(0.04859620597 0 0.06158227827)
(6.387693937 0 -9.321735579)
(6.14594814 0 -8.989103819)
(5.820664505 0 -8.528008809)
(5.391895198 0 -7.918473717)
(4.83347692 0 -7.13196671)
(4.103496596 0 -6.126608741)
(3.149206024 0 -4.864051769)
(1.951854527 0 -3.370400723)
(0.6191458727 0 -1.824874876)
(-0.7091443225 0 -0.4829289541)
(-0.7937505246 0 -0.5078106279)
(-0.8081616925 0 -0.4992210006)
(-0.7442951761 0 -0.4512834608)
(0.2715267771 0 -0.4000488025)
(0.5573828063 0 -0.5370203467)
(0.7975768813 0 -0.4687534749)
(0.09987323371 0 -0.06298186605)
(5.576948284 0 -8.16902011)
(5.116469303 0 -7.516662003)
(4.536659247 0 -6.704818059)
(3.820090267 0 -5.719044761)
(2.976105359 0 -4.590063045)
(2.080425957 0 -3.439947303)
(1.148207 0 -2.294849175)
(-0.4014111056 0 -0.5036206216)
(-0.6960509519 0 -0.4666490945)
(-0.8009709129 0 -0.5229345927)
(-0.8374614368 0 -0.5287544428)
(-0.8624776023 0 -0.5265800199)
(0.6786857156 0 -0.190003056)
(0.5372922188 0 -0.1098597856)
(2.972125423 0 -4.524217773)
(2.124268356 0 -3.375672653)
(1.466299223 0 -2.513056264)
(0.7608953161 0 -1.546193268)
(-0.1259882455 0 -0.3564179983)
(-0.5840885983 0 -0.400486048)
(-0.7827816732 0 -0.5327513821)
(-0.851453682 0 -0.5366593217)
(-0.8938939129 0 -0.5717166863)
(-0.05159972714 0 -0.155621504)
(-0.05721027838 0 -0.16698898)
(-0.06564025301 0 -0.1807241047)
(-0.07495522812 0 -0.1961757955)
(-0.08494286876 0 -0.2151900287)
(-0.09382727777 0 -0.2170016019)
(-0.1032369167 0 -0.2502015375)
(-0.1214472102 0 -0.2800994096)
(-0.1212036991 0 -0.2626561229)
(-0.1413617774 0 -0.3102510282)
(-0.1683047786 0 -0.3525618876)
(-0.165527783 0 -0.3265133134)
(-0.2076992302 0 -0.4157993592)
(-0.2504553552 0 -0.4820413629)
(-0.2034383982 0 -0.3543374359)
(-0.2930132479 0 -0.5531968793)
(-0.1299073209 0 -0.3154358738)
(-0.2204982274 0 -0.2788882007)
(-0.02084623374 0 0.04601975604)
(0.1525561333 0 0.2693612706)
(0.1724173535 0 0.3625178179)
(-0.8704526225 0 0.2333268488)
(-2.134648623 0 -2.661221547)
(-0.117223235 0 -0.1363874962)
(-0.0817281598 0 -0.122673736)
(-0.04201735488 0 -0.1158522489)
(-0.04039653061 0 -0.1365818511)
(-0.03392801296 0 -0.1237682796)
(-0.03749839782 0 -0.1589648574)
(-0.04101181114 0 -0.1860915077)
(-0.04321989808 0 -0.160203103)
(6.795923993 0 -4.665274604)
(6.843994072 0 -4.675845543)
(6.843419067 0 -4.687174914)
(6.860678444 0 -4.674816776)
(6.878568315 0 -4.673916933)
(6.888313713 0 -4.706212107)
(0.2607054199 0 0.05759118308)
(-0.03381358897 0 -0.7265657027)
(-0.1111194916 0 -0.1468194991)
(-0.1189331573 0 -0.1731620957)
(-0.1097259818 0 -0.2050612035)
(-0.1394193248 0 -0.17107347)
(-0.1349820071 0 0.04217422046)
(-0.07784514324 0 0.016557891)
(-0.08405004389 0 0.01846062438)
(-0.06223095419 0 0.01862460402)
(-0.07144035819 0 -0.07941066603)
(-0.07292658795 0 -0.09342321847)
(-0.08232807322 0 -0.09376305012)
(-0.06652005885 0 -0.1248445234)
(-0.05191961482 0 -0.1605306738)
(-0.08976200265 0 -0.1468412422)
(-0.05880439364 0 0.008532860567)
(-0.05355953761 0 0.01522146287)
(-0.05508201297 0 0.01809046977)
(-0.0650651967 0 0.02519951472)
(-0.2441938535 0 0.09357883834)
(-0.06700734938 0 -0.077723563)
(-0.05822129086 0 -0.07851513435)
(-0.06490910426 0 -0.07458966056)
(-0.4173063511 0 0.1837756735)
(-0.4115245937 0 0.2006970481)
(-0.07155249675 0 -0.1100019557)
(-0.07415567852 0 -0.1050264146)
(-0.07343775877 0 -0.09066907785)
(-0.4434931816 0 0.2539694142)
(-0.3968283741 0 0.2440824734)
(-0.04746890247 0 -0.1302882922)
(-0.05405540583 0 -0.1363248087)
(-0.0665589474 0 -0.1459915514)
(-0.07181625471 0 -0.1226542909)
(-0.542665318 0 0.3455187561)
(-0.4118028424 0 0.2791657275)
(-0.4020816793 0 0.2610314047)
(-0.3017393705 0 0.2248917375)
(-0.02578593058 0 -0.1325118875)
(-0.02563291817 0 -0.1496960306)
(-0.03544189369 0 -0.1358356724)
(-0.096522145 0 0.1012172615)
(0.09072411804 0 0.1451898644)
(-0.06867001227 0 0.1002320128)
(0.05457645611 0 -0.199536428)
(-0.01263896941 0 -0.1387759724)
(-0.6827373056 0 -0.5824494476)
(0.1453902834 0 -0.3036076675)
(0.1514450595 0 -0.3144662507)
(0.1292942657 0 -0.2971295619)
(9.375676092 0 -13.73264196)
(9.38906852 0 -13.74060493)
(9.400692529 0 -13.75550285)
(0.1750719362 0 -0.3323241583)
(0.1756474847 0 -0.3329309292)
(0.1921278015 0 -0.3575753956)
(0.1663824279 0 -0.3253505089)
(9.361355769 0 -13.67027722)
(9.362736608 0 -13.65488136)
(9.385652133 0 -13.7188606)
(4.974678478 0 4.392954261)
(0.2044909293 0 -0.4700543458)
(0.2058055082 0 -0.3666447867)
(-0.239614492 0 -0.1842194384)
(0.3635940855 0 -0.9528776178)
(0.357836494 0 -0.9393095744)
(0.2921965369 0 -0.7900919523)
(-0.1202701471 0 -0.309519492)
(-0.1029709816 0 -0.0961150302)
(0.4474573436 0 -0.9988755533)
(0.4509802102 0 -0.974238063)
(0.4136533719 0 -0.9903512975)
(-0.1398261999 0 -0.1449618564)
(-0.07320125963 0 -0.07106964402)
(-0.0811153276 0 -0.09420278586)
(0.5504934246 0 -0.9861785483)
(0.563611755 0 -0.8986413704)
(0.4936260304 0 -0.935386389)
(-0.1567494595 0 -0.04667705766)
(-0.1101221137 0 0.0002118701408)
(-0.09115315445 0 -0.03209318584)
(0.7470119852 0 -0.9805606036)
(0.829335434 0 -0.9116038094)
(0.6759381052 0 -0.8869814756)
(-0.1663736074 0 -0.03989477507)
(-0.1302755247 0 0.05565103941)
(-0.1186531411 0 0.03872213282)
(1.022767717 0 -1.008500717)
(1.192912981 0 -1.048286686)
(1.008675318 0 -0.9695406014)
(-0.1584487976 0 -0.1199389705)
(-0.115163958 0 0.0299763182)
(-0.1322216151 0 0.0439302732)
(1.541064496 0 -1.226209669)
(1.347667274 0 -1.120105327)
(-0.1425919154 0 -0.3154602093)
(-0.138192581 0 0.02487348014)
(2.004086133 0 -1.51389284)
(1.772900192 0 -1.366306608)
(-0.15087982 0 -0.1441825047)
(2.202896917 0 -1.646660416)
(2.621517759 0 -1.939320709)
(2.883311809 0 -2.128365421)
(2.654352469 0 -1.948274337)
(0.3179436875 0 0.2855767891)
(0.183877044 0 0.1070739504)
(0.03498852703 0 -0.205796244)
(3.204489318 0 -2.468506258)
(3.465916263 0 -2.714061772)
(3.153884394 0 -2.374651625)
(0.4680611462 0 0.4004024204)
(0.4013462676 0 0.3712148628)
(0.3281277329 0 0.3038200368)
(4.21145529 0 -3.749860528)
(3.820087386 0 -3.167595974)
(0.4499822617 0 0.3347515513)
(5.142342869 0 -5.425926581)
(5.346647441 0 -5.825373351)
(5.063609763 0 -5.197088346)
(-1.383665772 0 -1.533954036)
(-0.7261984041 0 0.7145250705)
(0.3164092031 0 0.2301560508)
(5.611654154 0 -6.442171233)
(6.014758274 0 -7.408812457)
(6.180561213 0 -7.806808142)
(5.981317184 0 -7.281052623)
(-0.1980272165 0 -0.007714801311)
(-0.3025880962 0 0.01182825179)
(-1.338200095 0 -1.561828366)
(6.500632317 0 -8.687498249)
(6.351043465 0 -8.270940013)
(-0.1627432478 0 -0.4959833618)
(-0.4056393183 0 0.05563983645)
(6.824372007 0 -9.662926695)
(6.789907218 0 -9.505305215)
(-0.9040600569 0 -0.8797557354)
(-0.3740164375 0 0.4601693802)
(6.754986045 0 -9.780058772)
(6.834779093 0 -9.862782504)
(6.70428248 0 -9.736855822)
(6.642517438 0 -9.668308187)
(6.783844469 0 -9.85820252)
(-0.1679441477 0 -0.08632519724)
(-0.2353783867 0 -0.05134383367)
(-0.2336914198 0 -0.07122439911)
(-0.1964914855 0 0.04947797207)
(0.4631969115 0 -0.3980692346)
(6.476168193 0 -9.438794421)
(6.184104765 0 -9.031409495)
(6.032470664 0 -8.820235145)
(6.278442113 0 -9.173356592)
(0.9794193664 0 -0.5160989605)
(0.04662366291 0 -0.2929373986)
(-0.06081358454 0 -0.1495832896)
(5.35461087 0 -7.854667094)
(4.761713565 0 -7.010562799)
(4.446825079 0 -6.569316483)
(4.850014059 0 -7.142824681)
(4.070272781 0 -6.0436881)
(3.718158706 0 -5.556384309)
(4.194360549 0 -6.231272171)
(-0.8902853468 0 -0.5502196719)
(0.3360933934 0 0.3585133001)
(0.4278976222 0 -0.08369856006)
(0.5680543667 0 -0.1717391202)
(0.8554885107 0 -0.1453700045)
(0.8656536829 0 -0.1545888748)
(0.6901230273 0 -0.4367640687)
(3.32701154 0 -5.005882775)
(2.546201506 0 -3.945689095)
(1.490858092 0 -2.470327614)
(1.784617545 0 -2.919401452)
(1.242186334 0 -2.139317305)
(0.9232420836 0 -1.68087322)
(1.127493172 0 -2.060220307)
(0.5704723937 0 -1.143765494)
(0.235082411 0 -0.6116137069)
(0.3093226451 0 -0.8784246143)
(0.2322990472 0 -0.6703315226)
(0.1787683401 0 -0.7752843864)
(-0.4085414867 0 -0.281814083)
(0.1663597279 0 -0.8896331646)
(0.1399181662 0 -0.3166388871)
(-0.7113146203 0 -0.4859021125)
(0.1069615514 0 -0.5188624899)
(-0.8350159125 0 -0.5370254377)
(-0.8711499791 0 -0.5795734864)
(-0.04941930635 0 -0.2115810392)
(-0.0578071601 0 -0.2323841327)
(-0.06347594097 0 -0.2061555566)
(-0.06665719725 0 -0.2537146841)
(-0.0763646469 0 -0.2786382694)
(-0.08647558941 0 -0.2517850316)
(-0.07180063529 0 -0.2898346502)
(0.1800972403 0 -0.3165079447)
(-0.1165296875 0 -0.3078127959)
(0.4285036261 0 -0.3064644173)
(0.7658670689 0 -0.5306025537)
(0.07807716856 0 -0.349929307)
(1.57020562 0 -1.078989598)
(2.698948992 0 -1.854985432)
(0.9839201384 0 -0.6754694008)
(3.914559511 0 -2.691163293)
(4.982167066 0 -3.425684716)
(3.542146392 0 -2.436705552)
(5.774472633 0 -3.970960057)
(6.284110229 0 -4.321827057)
(5.880433342 0 -4.047077093)
(6.571366624 0 -4.519369826)
(6.719654787 0 -4.619526029)
(6.677864817 0 -4.597659726)
(-0.09155061303 0 -0.2229726544)
(-0.06417135264 0 -0.2267807297)
(-0.09539049065 0 -0.1765101868)
(-0.04083905184 0 -0.2288465868)
(-0.02257784628 0 -0.2453239118)
(-0.05837441304 0 -0.1871895617)
(0.002236089697 0 -0.2712329336)
(0.02904481411 0 -0.3032272767)
(-0.04346639005 0 -0.2315875422)
(0.05769397427 0 -0.3328449052)
(0.1279013095 0 -0.3269927088)
(-0.05041674285 0 -0.267629345)
(0.2990561957 0 -0.2699307774)
(0.3370114086 0 -0.2424271567)
(0.126076772 0 -0.2806019388)