/*--------------------------------*- C++ -*----------------------------------*\
| =========                 |                                                 |
| \\      /  F ield         | OpenFOAM: The Open Source CFD Toolbox           |
|  \\    /   O peration     | Version:  2.1.x                                 |
|   \\  /    A nd           | Web:      www.OpenFOAM.org                      |
|    \\/     M anipulation  |                                                 |
\*---------------------------------------------------------------------------*/
FoamFile
{
    version     2.0;
    format      ascii;
    class       scalarField;
    location    "2.2";
    object      age;
}
// * * * * * * * * * * * * * * * * * * * * * * * * * * * * * * * * * * * * * //


29
(
0.005832845266
0.005411281349
0.005227350794
0.005037176731
0.004811523688
0.004620924649
0.004413072688
0.004221388879
0.004021425137
0.003812077311
0.003621398747
0.00342332184
0.003209552229
0.003029818497
0.002809432401
0.002623044292
0.002409219963
0.002212694298
0.002029539567
0.001821229407
0.001616694751
0.001426634127
0.001224054094
0.001023787182
0.0008121699661
0.000610500414
0.0004245571507
0.0002166918848
9.909689855e-06
)


// ************************************************************************* //
