/*--------------------------------*- C++ -*----------------------------------*\
| =========                 |                                                 |
| \\      /  F ield         | OpenFOAM: The Open Source CFD Toolbox           |
|  \\    /   O peration     | Version:  2.1.x                                 |
|   \\  /    A nd           | Web:      www.OpenFOAM.org                      |
|    \\/     M anipulation  |                                                 |
\*---------------------------------------------------------------------------*/
FoamFile
{
    version     2.0;
    format      ascii;
    class       scalarField;
    location    "2.2";
    object      d;
}
// * * * * * * * * * * * * * * * * * * * * * * * * * * * * * * * * * * * * * //


29
(
0.0007366040486
0.0005039054932
0.0005427268322
0.00050065309
0.0005502359099
0.0005019534924
0.0006099676393
0.0005004417784
0.0005021742065
0.000678844616
0.0005890894963
0.0005632412925
0.0007143758516
0.0005072506372
0.001157630081
0.0005159621938
0.0005234714805
0.0005114184889
0.0005165181827
0.0005499202866
0.000534798294
0.0005023094599
0.0005000275775
0.0005004479016
0.0005084229027
0.0005206554493
0.0005959326495
0.0005009207496
0.000649787716
)


// ************************************************************************* //
