/*--------------------------------*- C++ -*----------------------------------*\
| =========                 |                                                 |
| \\      /  F ield         | OpenFOAM: The Open Source CFD Toolbox           |
|  \\    /   O peration     | Version:  2.1.x                                 |
|   \\  /    A nd           | Web:      www.OpenFOAM.org                      |
|    \\/     M anipulation  |                                                 |
\*---------------------------------------------------------------------------*/
FoamFile
{
    version     2.0;
    format      ascii;
    class       scalarField;
    location    "2.2";
    object      mass0;
}
// * * * * * * * * * * * * * * * * * * * * * * * * * * * * * * * * * * * * * //


29
(
2.09267086e-07
6.69955413e-08
8.370328503e-08
6.570664993e-08
8.722589073e-08
6.621998272e-08
1.188280601e-07
6.562348625e-08
6.630737392e-08
1.63798438e-07
1.070391027e-07
9.355824824e-08
1.908881279e-07
6.833865486e-08
8.122842492e-07
7.192042818e-08
7.51065303e-08
7.003705825e-08
7.215317814e-08
8.707587471e-08
8.008822377e-08
6.636096517e-08
6.54606772e-08
6.562589511e-08
6.88135463e-08
7.390092543e-08
1.108128595e-07
6.581209074e-08
1.436524751e-07
)


// ************************************************************************* //
