/*--------------------------------*- C++ -*----------------------------------*\
| =========                 |                                                 |
| \\      /  F ield         | OpenFOAM: The Open Source CFD Toolbox           |
|  \\    /   O peration     | Version:  2.1.x                                 |
|   \\  /    A nd           | Web:      www.OpenFOAM.org                      |
|    \\/     M anipulation  |                                                 |
\*---------------------------------------------------------------------------*/
FoamFile
{
    version     2.0;
    format      ascii;
    class       scalarField;
    location    "2.2";
    object      nParticle;
}
// * * * * * * * * * * * * * * * * * * * * * * * * * * * * * * * * * * * * * //


29
(
0.6570062877
1.892528355
1.700739355
2.100448389
1.907269791
1.839699863
1.310772263
2.084903332
2.086409837
0.7094044063
1.346791329
1.557663676
0.7440861102
1.786687963
0.1867651332
1.796667672
1.97690147
1.771188858
1.918189035
1.660286758
1.781217774
1.998719004
2.175839463
2.108551557
2.127725743
1.933994011
1.162587868
2.079415844
0.9198572343
)


// ************************************************************************* //
