/*--------------------------------*- C++ -*----------------------------------*\
| =========                 |                                                 |
| \\      /  F ield         | OpenFOAM: The Open Source CFD Toolbox           |
|  \\    /   O peration     | Version:  2.1.x                                 |
|   \\  /    A nd           | Web:      www.OpenFOAM.org                      |
|    \\/     M anipulation  |                                                 |
\*---------------------------------------------------------------------------*/
FoamFile
{
    version     2.0;
    format      ascii;
    class       Cloud<basicReactingParcel>;
    location    "2.2";
    object      positions;
}
// * * * * * * * * * * * * * * * * * * * * * * * * * * * * * * * * * * * * * //

29
(
(0.02237069178 0.001739509522 0.01044672142) 72169
(0.009043792645 0.0007074189436 0.0162314488) 105938
(0.01129398573 0.0006769887249 0.01517182784) 101080
(0.0125682065 0.0009871676706 0.01235109627) 81693
(0.01122823352 0.003315930414 0.005892743425) 3167
(0.004879041264 0.004635938275 0.01101637549) 77898
(0.006506267884 0.004324732034 0.01387498869) 92614
(0.01389374789 0.003482833738 0.01257207684) 87383
(0.01758287211 0.005138218745 0.0122415979) 83109
(0.01378958499 0.0051801313 0.01592439379) 107438
(0.01589016781 0.006519216454 0.008511662377) 64072
(0.006834586259 0.007963584257 0.01531878058) 103398
(0.01324408038 0.006424204373 0.01187506643) 83456
(0.01593111926 0.008367382915 0.009058142753) 64622
(0.01334804864 0.007598858381 0.01268978892) 9081
(0.01223820633 0.008175503398 0.01199672207) 84035
(0.01037461668 0.009505820398 0.01478686485) 99116
(0.01224522742 0.009390124032 0.01277346232) 89133
(0.01293958156 0.0103004924 0.01455056006) 99330
(0.01261068278 0.01110429694 0.01489889821) 99529
(0.01228127624 0.01117351213 0.01217937408) 84823
(0.01322584456 0.01227418801 0.0144575612) 99724
(0.01232268976 0.01234020764 0.01237057217) 85021
(0.01256383192 0.01301980389 0.01177744949) 85219
(0.01149041784 0.01392220618 0.0132656823) 90306
(0.01295469068 0.01430093037 0.01300582611) 90514
(0.01203476072 0.0148396252 0.0127414396) 90504
(0.01290309001 0.01549468466 0.01256705894) 9380
(0.01250005695 0.01597029951 0.01250130116) 90707
)


// ************************************************************************* //
