/*--------------------------------*- C++ -*----------------------------------*\
| =========                 |                                                 |
| \\      /  F ield         | OpenFOAM: The Open Source CFD Toolbox           |
|  \\    /   O peration     | Version:  2.1.x                                 |
|   \\  /    A nd           | Web:      www.OpenFOAM.org                      |
|    \\/     M anipulation  |                                                 |
\*---------------------------------------------------------------------------*/
FoamFile
{
    version     2.0;
    format      ascii;
    class       vectorField;
    location    "2.2";
    object      U;
}
// * * * * * * * * * * * * * * * * * * * * * * * * * * * * * * * * * * * * * //


29
(
(1.675789719 -2.449669239 -0.3485939193)
(-0.6286842366 -2.808213185 0.6787506656)
(-0.2275724737 -2.917036561 0.5041685532)
(0.01334070451 -2.961083745 -0.02912450779)
(-0.2610699785 -2.627399312 -1.356346749)
(-1.626975639 -2.448733026 -0.3167345495)
(-1.344994738 -2.641601349 0.3085477485)
(0.3260672303 -2.949102409 0.01686237118)
(1.249083923 -2.688952131 -0.06350069367)
(0.3358574826 -2.836655249 0.8918437227)
(0.92828984 -2.613817116 -1.092079656)
(-1.640918274 -2.344488722 0.8164255555)
(0.2305276958 -2.982538958 -0.1936141571)
(1.122529159 -2.512008481 -1.126042212)
(0.301113232 -2.996824757 0.06738759076)
(-0.09906526901 -2.973795752 -0.190445262)
(-0.876301718 -2.689455186 0.9428810232)
(-0.1144099526 -2.979207041 0.1228028968)
(0.2153467391 -2.802170262 1.004549472)
(0.06048730129 -2.684487133 1.310979746)
(-0.1346997469 -2.980388892 -0.1974555946)
(0.5066266673 -2.607643074 1.366343108)
(-0.1443229465 -2.985021212 -0.1053487104)
(0.06215677286 -2.907114251 -0.7035885435)
(-1.240079003 -2.55626998 0.9404945726)
(0.7434725914 -2.781284202 0.8270850119)
(-1.094710157 -2.732552668 0.5681084706)
(1.85889901 -2.3314878 0.3092505156)
(0.005747099693 -2.99709774 0.1312972553)
)


// ************************************************************************* //
