/*--------------------------------*- C++ -*----------------------------------*\
| =========                 |                                                 |
| \\      /  F ield         | OpenFOAM: The Open Source CFD Toolbox           |
|  \\    /   O peration     | Version:  2.1.x                                 |
|   \\  /    A nd           | Web:      www.OpenFOAM.org                      |
|    \\/     M anipulation  |                                                 |
\*---------------------------------------------------------------------------*/
FoamFile
{
    version     2.0;
    format      ascii;
    class       volScalarField;
    location    "0.9";
    object      deltaf;
}
// * * * * * * * * * * * * * * * * * * * * * * * * * * * * * * * * * * * * * //

dimensions      [0 1 0 0 0 0 0];

internalField   nonuniform List<scalar> 
2828
(
2.088557003e-09
4.621035424e-11
3.349378833e-10
2.82362825e-08
7.43808815e-09
4.181458672e-06
3.440875939e-06
2.106390205e-06
5.977376397e-07
2.218483406e-09
1.668286649e-08
5.844405277e-08
3.606407865e-07
2.564147664e-06
9.971612018e-06
5.187603264e-05
0.0001401545562
4.92042648e-06
3.878056505e-06
2.750834901e-06
2.659110727e-06
4.348573667e-06
1.048536681e-05
1.087013064e-06
4.408036738e-07
1.916054719e-06
6.39112562e-06
1.834392747e-05
4.668676689e-05
9.955652776e-05
9.714586935e-05
5.567267994e-10
2.649654937e-13
4.922897946e-06
3.140863603e-06
2.358775768e-06
2.539615882e-06
1.31095918e-05
3.738715874e-05
1.633749291e-05
1.130561513e-06
2.753889474e-06
8.840275365e-06
2.089256542e-05
4.339906339e-05
7.53778718e-05
9.509382231e-05
5.511700621e-05
4.205430841e-11
4.330585919e-13
1.573512783e-24
5.983640605e-20
6.706975221e-06
1.350139082e-05
2.815310659e-05
2.971582694e-05
4.146927014e-05
8.482539021e-05
3.411984339e-05
4.171600735e-06
2.222092902e-06
9.813892603e-06
2.186428454e-05
4.083036564e-05
6.535596304e-05
8.389006319e-05
7.400606586e-05
2.965780591e-05
2.261414166e-12
8.061633604e-13
6.220286911e-29
2.270750276e-19
1.593241492e-07
1.615106745e-05
9.407210859e-05
0.0002315481247
0.0003075460263
0.0002813838338
0.0002231460323
0.0001082970713
1.979120902e-05
1.626730505e-06
1.517329983e-05
3.079518059e-05
3.870472808e-05
5.949780087e-05
7.669432593e-05
7.725307126e-05
5.181079671e-05
1.597807848e-05
6.570095305e-13
7.510890506e-12
3.814609442e-12
3.395432937e-11
1.764922206e-05
5.604850749e-05
1.520031533e-05
0.0001947236681
0.0005783775849
0.0009605999584
0.001071442238
0.0008907582272
0.0005826813685
0.0002888551725
0.0001010130354
1.705681603e-06
3.37709619e-06
5.750810955e-05
6.727666184e-05
7.084454408e-05
7.806207258e-05
7.110207067e-05
5.620817599e-05
0.0001294750887
0.0001870252622
0.0001052191046
1.174311992e-05
2.174957023e-05
2.690574447e-05
1.754328242e-05
1.275261515e-05
0.0001804956998
0.0007406288493
0.00155573945
0.002069733413
0.001985595062
0.00153587034
0.001063366958
0.0006890197607
0.0004034191756
0.0001704501889
1.531952885e-05
8.206610477e-05
7.147428504e-05
0.0001872085845
0.0001210743478
0.0001468550802
0.0001542807522
0.000190792157
0.0002022034897
0.0001970778937
3.931706371e-05
2.532829806e-05
2.038553291e-05
2.031488704e-05
6.330714073e-05
7.553315112e-05
0.0005638988244
0.00155021114
0.002488073121
0.002663057276
0.002091848681
0.001444104949
0.001047930619
0.0008204861765
0.0006558449005
0.0004960283929
0.0002595747829
2.237197318e-05
0.0001391552749
0.0004494510655
0.0001493514357
9.150380152e-05
0.0001441845971
0.0001529651993
0.0002007973616
0.0001633744345
0.0001745382316
0.0002328303944
0.000121410884
6.516651011e-05
9.328145787e-05
8.84893571e-05
2.154224025e-05
0.000239213639
0.0009966376147
0.002087343868
0.002641147982
0.002159573641
0.001272459422
0.000798947165
0.0006285310048
0.0005526356077
0.0005105103045
0.0004975021509
0.0005337055973
0.0006678525719
0.0005898057284
0.0002229976036
6.241607005e-06
3.600665833e-06
0.0001017313167
0.0001602662127
0.0002363312733
3.411568322e-05
1.580492542e-05
2.244442999e-05
5.380440329e-05
8.402876771e-05
0.0001943216886
0.0001064031785
3.598769612e-05
0.0003746839016
0.00123126103
0.002060898619
0.002061685454
0.001259551759
0.0006857506778
0.0004988350008
0.0004405200035
0.0003930629178
0.000337736445
0.0002726109473
0.0001992308238
0.0001235012487
5.981880408e-05
2.062701601e-05
4.667497033e-06
1.663132977e-06
6.692790447e-05
0.0001835800167
0.0001979172082
4.141053966e-05
9.92050574e-06
2.765111025e-06
2.824864356e-06
1.805149171e-05
0.0001033389
9.239796671e-05
6.729763846e-05
0.0004572672351
0.001215921367
0.001653818653
0.001363838292
0.0007268502379
0.000534010239
0.0004427043481
0.0004149068047
0.0003849163377
0.0003397828541
0.0002791132885
0.000210406692
0.0001430213092
8.151365828e-05
3.256777716e-05
7.714450675e-06
1.42961847e-06
2.072133185e-05
0.0001718934483
0.0002013425024
0.0002021658856
4.288567776e-05
1.893455717e-06
1.395354653e-06
7.748351754e-06
5.023111896e-05
5.534938809e-05
1.725107219e-05
8.708732397e-05
0.0004937200031
0.001018617346
0.001116362888
0.0008794031391
0.0006343059085
0.0004584194794
0.0004069470396
0.0003931762484
0.0003803783041
0.0003522388525
0.0003055559077
0.0002468888734
0.0001857353438
0.0001239409669
6.138317238e-05
1.503687902e-05
2.045688763e-06
1.75513095e-06
0.0001714351903
0.0002103295687
0.0001136454874
3.690757961e-07
3.290418885e-08
1.315880707e-07
3.282921373e-06
2.632588323e-05
0.0001599295858
0.0002482423502
6.081108538e-05
0.0001813235258
0.000505739609
0.0006897634808
0.0006855148154
0.0006275116513
0.0005131824206
0.0004087770982
0.0003636610182
0.0003579034436
0.0003607730208
0.0003521936936
0.0003244418027
0.0002797624568
0.0002266669845
0.0001716348716
0.0001123514562
4.579016313e-05
1.385364232e-07
2.867704844e-08
1.047463444e-05
0.0001501050475
0.0001475666813
1.431093534e-05
1.554308853e-06
2.341345632e-06
7.047778204e-06
2.039022316e-05
0.000133813003
0.0001883905318
0.0001847364581
0.000252417044
0.0003164593745
0.0003500052084
0.0004363426646
0.0004863177755
0.0004414879573
0.0003622128013
0.0003169168983
0.000312575049
0.0003264624356
0.0003361528699
0.0003285644977
0.000300090162
0.0002555536809
0.0002054596054
0.0001587578261
0.0001104279145
4.379727736e-05
9.741933328e-08
1.514326196e-05
0.0001214505064
6.924714688e-05
1.629575357e-05
7.147279791e-06
8.443497799e-06
1.158731289e-05
1.03644765e-05
1.82882975e-05
4.226625221e-05
0.0001331568466
7.282791206e-05
9.368507093e-05
0.0001822617566
0.0002966824083
0.0003736559454
0.0003747530817
0.0003208176101
0.0002729627045
0.0002628695741
0.0002804187021
0.0003043697026
0.0003172068903
0.0003089435798
0.0002774426316
0.000228453711
0.0001751158007
0.0001352048918
0.0001347917606
0.0001134574889
4.876317322e-05
5.063289153e-05
1.886211728e-05
7.979554915e-06
1.023693947e-05
1.335944191e-05
1.215288159e-05
6.946609192e-06
3.866326386e-06
5.149686332e-06
1.128210066e-05
9.676928566e-06
3.78623004e-05
0.0001032486923
0.0001935054795
0.0002753100241
0.000311610943
0.0002864137814
0.0002376639603
0.000215897416
0.0002279775657
0.0002587298447
0.0002887554321
0.0003030288391
0.0002932111462
0.0002571775708
0.0002005670294
0.0001360020791
7.803263993e-05
3.701107756e-05
1.566088398e-05
1.134230016e-05
1.732797651e-05
8.92037531e-06
8.360650025e-06
9.361905442e-06
6.242045825e-06
3.527558131e-06
3.85155808e-06
1.035295352e-05
3.650713447e-05
2.435638722e-05
2.617774467e-05
6.051674358e-05
0.0001220338043
0.0001947412816
0.0002520751267
0.0002578249955
0.0002150210132
0.0001789608869
0.0001765815002
0.0002045199797
0.000244354529
0.0002775982221
0.0002924393615
0.0002806701337
0.0002403255847
0.0001790215652
0.0001124858998
5.749612968e-05
2.325103914e-05
8.167036188e-06
8.941808783e-06
1.291978519e-05
1.295372e-05
1.207988779e-05
9.378148636e-06
7.584273761e-06
1.247224836e-05
3.795356288e-05
8.514461734e-05
6.283085416e-05
5.832675861e-05
8.253427918e-05
0.0001333692781
0.000196717453
0.0002314897313
0.0002056988546
0.0001582563999
0.000133919699
0.0001494822384
0.0001902225385
0.0002343560858
0.0002696817416
0.0002848268523
0.0002701320597
0.0002240716107
0.0001572100511
8.93328962e-05
3.89975822e-05
1.300138506e-05
8.751684492e-06
3.142457577e-05
4.770821663e-05
5.965592189e-05
7.078610579e-05
8.437567544e-05
0.0001059100342
0.0001231640256
0.0001371793534
0.0001042181814
7.786667713e-05
6.802218851e-05
9.070684857e-05
0.0001491860683
0.00020560448
0.0002065376171
0.0001582373968
0.0001064714593
0.0001009372561
0.0001349013323
0.0001802331073
0.0002268607388
0.00026478482
0.0002800275694
0.0002611300059
0.0002073721635
0.0001338038135
6.564814312e-05
2.225598024e-05
4.6672731e-06
2.737665943e-05
6.427672391e-05
9.891285676e-05
0.0001336326378
0.0001656424971
0.0001941205335
0.0002003472466
0.0001414481164
0.0001134291052
8.126480584e-05
6.33939724e-05
7.198407404e-05
0.0001248642165
0.0001904767982
0.0002158680338
0.0001802825094
9.946889813e-05
6.369757409e-05
8.645640329e-05
0.0001248750492
0.000171496082
0.0002217181986
0.0002629905784
0.00027818301
0.0002532513988
0.0001890198071
0.000107794869
4.203229404e-05
9.165909085e-06
8.379313732e-07
2.853201377e-05
3.856456071e-05
2.984003274e-05
2.197895577e-05
2.247052612e-05
0.0001048611626
8.025332887e-05
8.511244337e-05
0.0001277899077
0.0001758224234
0.0002216224941
0.000244212366
0.0002196317288
0.0001149748947
3.912135526e-05
5.001297534e-05
7.749409699e-05
0.0001147385005
0.0001639421241
0.0002188993199
0.0002647593117
0.000279764612
0.0002457971258
0.000167009506
7.806828361e-05
2.015144272e-05
1.561769732e-06
8.288068659e-07
3.887624544e-06
7.690173775e-06
1.095965594e-05
1.470872299e-05
0.0001185270924
0.000124021926
0.0001783354407
0.0002878957423
0.0002800504854
0.0002754126059
0.0002749920714
0.0002562290123
0.0001400704476
2.528055222e-05
2.655221696e-05
4.37653401e-05
6.733534471e-05
0.0001047952958
0.0001571707286
0.0002184937058
0.0002711792656
0.0002856500634
0.0002372955101
0.0001379143207
4.436481618e-05
4.054282102e-06
1.170257991e-07
1.474023777e-06
4.896635243e-06
1.061280132e-05
0.0001785193567
0.000314427129
0.0002690512404
0.0002750872601
0.0003193638503
0.0003032094005
0.0002636074309
0.0001396249956
1.798241621e-05
1.324926441e-05
2.452830722e-05
3.550771652e-05
5.719994622e-05
9.448774583e-05
0.0001503164345
0.0002209868899
0.0002844583684
0.0002973977941
0.0002241017151
9.580817502e-05
1.108647489e-05
1.245064819e-07
1.81293322e-06
5.364096432e-06
1.069334663e-05
0.0001824246253
0.0002144231087
0.0002940983297
0.0001747170056
0.000177123476
0.000209320332
0.000191940024
8.101189481e-05
1.041244193e-05
3.932504758e-06
1.700406997e-05
1.956204323e-05
2.80410042e-05
4.703331978e-05
8.226849251e-05
0.0001422289227
0.0002274534052
0.0003093330539
0.0003176522425
0.000195290606
3.35274675e-05
1.282488077e-06
4.228840805e-06
9.057836067e-06
0.0001224426654
9.755379066e-05
8.944397196e-05
9.665814093e-05
9.597415523e-05
0.0001101334643
9.413022795e-05
2.582592525e-05
1.349768368e-05
2.023817891e-05
1.698508834e-05
1.765274845e-05
2.251419592e-05
3.555925855e-05
6.621151973e-05
0.0001307726423
0.0002398648823
0.0003575239733
0.0003498783194
0.0001092641512
1.648723142e-07
4.443030846e-06
7.140164223e-05
8.057891542e-05
7.67971959e-05
5.956437925e-05
4.236067926e-05
6.60493841e-05
5.608934542e-05
2.181731388e-05
1.286996101e-05
2.162520844e-05
2.68108726e-05
2.36941055e-05
1.923503144e-05
2.192379336e-05
4.388788381e-05
0.0001103411828
0.0002599972268
0.0004718718241
0.0003689070123
2.854422307e-09
6.444137162e-05
4.510648341e-05
2.775031729e-05
2.1294841e-05
5.921661491e-05
4.727192874e-05
1.818440803e-05
1.286601477e-05
2.678888908e-05
4.404005221e-05
4.721027971e-05
2.055198805e-05
7.21032616e-06
1.427273582e-05
5.891887612e-05
0.0002601302012
0.001228849808
3.752976296e-05
2.200215593e-05
1.025170142e-05
6.387080018e-06
1.377314945e-05
2.825631589e-06
3.692306144e-06
1.089369016e-05
2.898808547e-05
6.179746888e-05
6.757304256e-05
3.10313759e-05
3.402250166e-07
1.826619856e-08
4.340678889e-06
2.413598273e-06
9.016593085e-07
6.19543393e-07
1.342967078e-06
6.060253018e-06
3.056503459e-05
7.870305387e-05
7.083534792e-05
2.575228962e-06
1.809562328e-06
1.044254031e-06
3.950606343e-07
4.985011108e-09
3.211346934e-09
2.560354381e-09
3.271102735e-09
1.910624638e-09
1.747855143e-16
8.348618208e-17
1.186450537e-10
1.125118671e-16
1.764485666e-16
1.30704524e-09
2.802368099e-15
1.518683994e-07
1.314580775e-07
5.998561578e-09
3.215838465e-08
9.837898407e-08
1.636144723e-07
4.160902057e-07
4.637885616e-06
4.166183448e-06
3.748407298e-06
3.190400543e-06
3.789923772e-06
2.981123573e-06
2.820891534e-06
2.918090691e-06
8.549871903e-05
0.0001318054727
0.0001384758192
0.0001218446207
9.168374162e-05
0.0001384630246
9.724765386e-07
5.669614161e-07
4.974622177e-06
4.190099121e-06
3.27259483e-06
4.405016553e-06
3.328182438e-13
1.22633436e-22
2.97076537e-22
1.708771417e-23
6.08797535e-06
5.199629973e-06
5.579683754e-06
4.331290285e-06
4.187045779e-06
4.224571211e-06
1.270848059e-26
7.289704562e-27
8.884910264e-25
1.077188488e-19
3.710482354e-08
9.688923507e-06
1.039172037e-05
7.385750856e-06
2.506091281e-07
9.143276773e-07
8.234469172e-06
1.868340075e-05
1.160178825e-05
2.823057833e-05
5.20272111e-07
1.321476221e-05
5.69366273e-05
0.0001979873758
7.598003798e-05
2.89509287e-05
5.297579915e-05
4.676743255e-07
6.154449351e-05
3.599080442e-05
0.0001434394817
5.223321228e-05
6.892732577e-05
6.238707511e-05
6.246591241e-05
4.181533845e-05
2.194696715e-05
0.0001011637105
3.148405606e-05
0.0001157999526
6.763365432e-05
0.0001017117804
0.0001183591647
0.000132343163
1.862960561e-05
4.440180667e-05
0.0001716341317
0.0001442862497
7.421216708e-05
5.119824876e-05
8.404748869e-05
4.312129413e-05
3.278281759e-05
2.67564926e-05
9.438246791e-05
3.775000014e-05
4.576124536e-05
3.783920134e-05
0.0002766947821
0.000239665109
0.0001352722729
0.000186174347
9.228313169e-05
0.0001092996134
0.0001045422915
0.0001650880856
0.0002196002384
0.0002237863892
0.0002133547158
1.049643348e-05
1.22711458e-05
4.388653884e-05
3.783255438e-05
2.174800033e-05
0.0001005757868
6.398844947e-06
1.041657131e-05
7.412288114e-06
1.647627055e-05
1.210987608e-05
7.416796977e-06
1.816600771e-05
2.680641329e-05
1.708877253e-05
7.161656187e-05
3.511426124e-05
6.952053105e-05
4.119039058e-05
0.0001263744745
0.0001012668887
0.0001839376473
0.0001412701295
0.00014420238
0.0001302941359
0.000120737996
9.430986649e-05
8.537866657e-05
0.0002055632366
0.0001334734961
0.0001247006993
0.0001300216714
1.619466369e-05
1.813030872e-05
2.377140019e-05
0.0001157853102
0.0001178815974
1.556903617e-05
0.000132460201
0.0001396163465
0.0001164497226
1.026842141e-05
1.264852755e-05
1.404781768e-05
0.0001593177959
0.0001858181871
0.0002138310772
0.000227822427
6.729998464e-06
9.672962236e-06
8.566067876e-06
0.0001667006902
0.0001925037402
1.007914385e-05
1.063618619e-05
7.7185488e-05
0.0001110406578
3.13004627e-06
7.194474371e-06
7.645723267e-05
7.605847877e-05
7.641155474e-05
7.418877783e-05
8.068436358e-05
0.0006855235368
1.523224253e-06
2.660732036e-08
3.211484648e-06
6.53751429e-09
7.16067151e-05
6.311942399e-05
5.606998568e-05
5.446959295e-05
7.344626917e-09
3.145161818e-08
0.00055841099
2.948164858e-05
1.49146368e-05
1.113441098e-05
1.493263829e-05
8.324364929e-06
6.406351289e-06
7.016973804e-06
4.848043972e-05
3.875629363e-07
4.379522683e-07
3.463692231e-07
3.325892256e-08
1.623690023e-08
7.435472706e-08
5.590003161e-06
3.375029757e-06
1.232909337e-06
1.598221749e-06
7.1142018e-07
3.603149386e-07
6.366429911e-07
2.117200155e-07
1.761366177e-07
7.970303796e-07
1.779665135e-07
2.064102426e-07
2.814854853e-06
2.788262456e-07
4.548551664e-07
1.33350077e-05
7.882056301e-07
7.860417504e-05
7.441543414e-05
2.609048331e-06
2.391891913e-06
1.325177115e-06
2.177383543e-06
8.376685719e-07
1.55694312e-08
1.55304197e-08
3.369626949e-08
7.450074714e-09
9.308449792e-08
2.1440445e-07
2.633910901e-08
4.839796832e-07
1.12839672e-06
1.391827563e-07
2.385920781e-06
4.635984768e-06
9.695986377e-07
8.657157773e-06
1.541404485e-05
5.030876149e-06
2.734714362e-05
4.909767985e-05
2.188447134e-05
2.782357886e-06
2.478770542e-06
3.088694916e-06
2.371479333e-06
2.472149942e-06
2.609086229e-06
3.25306513e-06
6.806401652e-06
3.005257915e-06
1.46901377e-05
2.111654453e-05
7.592003257e-06
1.860501136e-05
1.290469784e-05
1.018293264e-05
2.325214076e-06
1.873102551e-06
3.609351272e-07
1.253064602e-06
2.644158826e-06
9.422355525e-07
4.62706255e-06
7.757862234e-06
3.587645544e-06
1.262216688e-05
1.9937708e-05
1.09895454e-05
3.049400601e-05
4.49422486e-05
2.96486025e-05
6.345105989e-05
8.427790529e-05
7.094209698e-05
0.0001010485849
0.0001015503903
0.0001184136308
7.405585071e-05
3.571097209e-05
5.679269745e-05
1.195346579e-10
3.210687723e-13
1.966206208e-11
4.462167188e-06
4.750492578e-06
2.627516737e-06
4.612983372e-06
4.484917435e-06
2.296705376e-06
7.454590748e-06
2.305701018e-05
4.421401745e-06
4.914707863e-05
5.975362316e-05
2.882660532e-05
4.600980534e-05
2.308060279e-05
3.008118517e-05
9.234755391e-06
7.081866501e-06
1.005016567e-05
1.24115151e-06
2.642745437e-06
1.384639185e-06
5.614763597e-06
9.67097399e-06
5.487474925e-06
1.46441854e-05
2.148930896e-05
1.378666978e-05
3.05815858e-05
4.202389527e-05
3.067117222e-05
5.541852174e-05
6.954924393e-05
5.877636287e-05
8.200208434e-05
8.886830797e-05
8.964335393e-05
8.528853044e-05
6.809938739e-05
8.41751166e-05
4.052854477e-05
1.492973392e-05
2.285035569e-05
1.033663344e-11
1.611215166e-13
2.558127688e-13
5.820956466e-13
9.055453124e-26
4.169768442e-24
1.930084569e-05
4.340893251e-05
7.936158859e-06
7.483261682e-05
0.000101849551
2.131532763e-05
0.000118109776
0.0001212105828
3.106088744e-05
0.000114407305
0.0001087143598
2.89158591e-05
0.0001167291235
0.0001233816563
7.144984008e-05
9.622652757e-05
5.321303682e-05
6.476495359e-05
2.259743725e-05
7.170787343e-06
1.252238678e-05
2.121669657e-06
4.138380426e-06
5.136975824e-06
4.329123305e-06
9.836127267e-06
5.390296587e-06
1.549683629e-05
2.212371402e-05
1.520572745e-05
3.008099926e-05
3.978589619e-05
3.038190848e-05
5.074725202e-05
6.213740009e-05
5.282675659e-05
7.254215325e-05
7.995672428e-05
7.660441265e-05
8.200009168e-05
7.650134022e-05
8.39398246e-05
6.264968551e-05
4.250417249e-05
5.415560762e-05
2.16382034e-05
6.802776889e-06
9.985307629e-06
7.895131916e-13
1.809698642e-13
1.190094427e-13
1.644715831e-12
5.95526464e-31
7.454236166e-28
2.388855543e-32
1.106882725e-32
3.284670682e-29
1.390253977e-18
1.881336215e-07
7.595713698e-08
6.520936565e-05
0.0001529191168
4.068744556e-05
0.000271993906
0.0004033334829
0.0001637383572
0.0005205946174
0.0005997246452
0.0002825949904
0.0006277319001
0.0006052891196
0.0003047150456
0.0005444751299
0.0004624644675
0.0002517348775
0.0003705942592
0.0002662595598
0.0001770282424
0.0001593165983
8.027040043e-05
5.132637971e-05
3.347108632e-05
8.761544354e-06
5.554521848e-06
6.583538223e-07
7.316542098e-08
4.532224292e-06
3.669238329e-06
1.668680668e-05
2.576690957e-05
6.004907461e-05
0.0001086588019
3.399013251e-05
6.252954627e-05
5.703226665e-05
4.886931407e-05
6.609463757e-05
7.370055747e-05
6.92773033e-05
7.778757494e-05
7.711721567e-05
7.993386723e-05
7.086671758e-05
5.927768296e-05
6.765540627e-05
4.433648736e-05
2.970995254e-05
3.284658527e-05
1.886789329e-05
3.401700497e-05
5.526068748e-06
3.406085003e-06
7.714673199e-07
1.110310943e-16
3.203043482e-06
3.794874146e-06
3.963936255e-12
5.077146109e-06
8.212278622e-06
4.490380972e-12
1.377544459e-05
2.416117836e-05
2.000149163e-05
2.575632436e-05
3.061459875e-05
3.093708245e-05
0.0004145637073
0.0007031435161
0.0003679314653
0.001021267791
0.001309240951
0.0007900364134
0.001512188247
0.001598524357
0.001058265272
0.001567127679
0.001442266682
0.001008560828
0.00126003743
0.00105455181
0.0007421831032
0.000850414264
0.0006622475259
0.0004267236864
0.0004976178744
0.0003596044862
0.0001813657065
0.0002462750602
0.0001471228875
3.909639579e-05
5.495145467e-05
2.220365605e-06
5.885344774e-07
4.987264231e-06
4.281039269e-05
1.989165644e-05
9.686257929e-05
8.415022579e-05
9.150118688e-05
7.534008745e-05
7.885577572e-05
6.385779404e-05
8.041231544e-05
8.233289572e-05
7.600836406e-05
8.731890479e-05
9.143613339e-05
7.623868148e-05
9.726203829e-05
0.0001129453123
6.386031215e-05
0.0001577108494
0.00020875065
5.413628486e-05
0.0001848787194
0.0002107619163
0.0001755908997
0.0002024428168
0.0001872355664
0.0001624735921
0.0002293077687
8.509072173e-05
1.149731271e-05
2.051917542e-05
2.144538793e-05
1.635895195e-05
2.519181298e-05
2.662619527e-05
2.679713571e-05
2.513756049e-05
2.425988406e-05
2.569092367e-05
0.0003506600645
0.0006889695581
0.0004050709781
0.00114246695
0.001640048627
0.001148662227
0.002083326216
0.002384455665
0.001882217281
0.002493275383
0.002411040474
0.002097631392
0.002188097066
0.001899674143
0.001780948431
0.001609745511
0.001353975857
0.00128975654
0.001140939437
0.0009648622574
0.000863366862
0.0008157842714
0.000684441039
0.0005369762886
0.0005636550087
0.0004484555814
0.0002839091276
0.0003380266525
0.000243834474
3.795550974e-05
0.0001090359937
2.622607624e-05
3.217245204e-05
4.06996143e-05
4.133865994e-05
6.723029615e-05
7.000330169e-05
0.000236532549
0.0001544143986
0.00037616011
0.0002006210053
0.0001229358848
0.0001561565941
0.0001459664114
0.000134589118
0.0001194369475
9.701283689e-05
0.000152990627
0.0001395755742
0.000179692746
0.000180008252
0.0001885958084
0.0002212430465
0.0002113498604
0.00020932372
0.0002072518073
0.0001920112579
0.0002481748717
0.0002098488833
0.0001394525132
0.00019442531
0.0001138593231
2.694802436e-05
4.479202669e-05
3.029874018e-05
2.382880807e-05
2.258454859e-05
1.788447421e-05
1.76664548e-05
2.126783846e-05
4.352526289e-05
3.861380712e-05
0.0001597637869
0.0003992883431
0.0002587532055
0.0007921664728
0.00131610367
0.001011387804
0.00188442872
0.002376741424
0.002079427947
0.002682695298
0.002734509309
0.002692950571
0.00253202877
0.002154410838
0.002432786047
0.001732000843
0.001376418092
0.001741902317
0.00111976573
0.0009500728062
0.001216301885
0.0008387188004
0.0007627031581
0.0009211707744
0.000707478255
0.0006645978463
0.00073463155
0.0006288796596
0.0005961992693
0.0005783881207
0.0005615805523
0.0005180412363
0.0003963896204
0.0004586642441
0.0003794309398
0.000131658732
0.0002770846134
0.000244791508
4.89152695e-05
0.0003596734952
0.0005226756089
0.0003930900274
0.0003862212127
0.0002571033936
0.0002125371037
0.0001818506027
0.0001150867594
0.0001182024719
6.86559838e-05
5.329596946e-05
8.438812833e-05
0.0001207627964
0.000128688492
0.0001597769005
0.0001339386332
0.0002208669703
0.0002057827831
0.0002092894223
0.0001249484158
0.0001728365828
7.084943013e-05
5.147411678e-05
0.0001517931421
5.055076573e-05
7.082312932e-05
0.0002392145909
0.0001087455565
0.0001397603772
0.0001729759143
0.0001419068968
0.0001217822186
8.911357937e-05
0.0001078725602
0.0001291470646
7.34932882e-05
0.0001502553021
6.564569258e-05
6.484056423e-05
0.0003143170013
0.0006627691995
0.0005410693277
0.001147371793
0.001681857299
0.001549794438
0.002140306836
0.0024063793
0.00248377419
0.002405644043
0.002134376784
0.002518396137
0.00168952361
0.00123830118
0.001694314106
0.0009003786846
0.0007028801094
0.0009798306728
0.0005935388105
0.0005348129531
0.0006934948554
0.0004966895425
0.0004669198735
0.0005847223098
0.000440420102
0.0004153471471
0.0005282949895
0.0003911802787
0.0003678465636
0.0004996897232
0.0003451802186
0.0003222912872
0.0005070664186
0.0002967158725
0.0002640531211
0.0005858110103
0.0002204723107
0.000168800373
0.0006698915442
0.0001176220554
6.868878315e-05
0.0005009700351
2.988968828e-05
8.688612188e-06
1.600999509e-05
3.81862313e-06
1.791181052e-06
4.469280402e-06
1.946815869e-06
2.942880588e-06
4.234879656e-06
8.720565153e-05
0.0001397630033
0.0001201583417
0.0002410942554
0.0003347353693
0.0002833828017
0.000199806217
4.979349833e-05
0.0001047075906
2.950391505e-06
2.775578033e-06
1.958864261e-05
3.395596654e-06
5.098904507e-06
1.698641407e-05
6.556341943e-06
8.633447849e-06
3.444585812e-05
1.385932482e-05
2.494580205e-05
7.150694694e-05
4.413764129e-05
7.968983489e-05
0.0001195685221
0.0001556913607
0.0001385147474
9.775641852e-05
0.0004220473591
0.0008041111087
0.0007509350216
0.001250847037
0.001646884484
0.001708869636
0.001886532224
0.001906580085
0.002192983537
0.001694849159
0.001314908208
0.001702694701
0.0009324721941
0.0006988516007
0.0009056800001
0.0005850263219
0.0005087721238
0.0005651462624
0.00046160907
0.0004401702326
0.0004653335819
0.0004226914698
0.0004045783421
0.0004173574024
0.0003838311093
0.0003596481954
0.0003666284616
0.0003318344698
0.00030063579
0.000306357021
0.0002667091436
0.0002310663961
0.0002367483115
0.000194903579
0.0001593763019
0.0001609551817
0.0001254663421
9.405783611e-05
8.904034772e-05
6.612659032e-05
4.283155758e-05
3.692161535e-05
2.50980921e-05
1.31215134e-05
1.029890503e-05
6.169375918e-06
2.632172238e-06
1.759618142e-06
1.358794909e-06
3.190943253e-06
3.016830906e-06
4.208721205e-05
0.0001427603342
0.0001385905158
0.0001789811584
0.0002103589312
0.0002492737291
0.0002132231358
0.0001415072947
0.0001227669098
0.0001003742934
6.85885036e-05
1.927880398e-05
3.569457612e-05
1.421389164e-05
5.139711343e-06
3.949953017e-06
1.828508794e-06
1.859472861e-06
2.182803999e-06
4.569155572e-06
6.943001325e-06
1.101068972e-05
2.518225921e-05
4.275427997e-05
6.864305502e-05
0.0001089153754
0.0001322251179
7.742700488e-05
0.0002176183204
0.0001985975634
0.0004788508396
0.0008182472178
0.0008254169045
0.001136000605
0.001339491531
0.001517689834
0.001388456581
0.001293396881
0.001597423383
0.001094451914
0.0008512618931
0.001024372668
0.0006484016252
0.0005422277688
0.0005832760715
0.0004943205548
0.0004532039963
0.0004803577294
0.0004257772065
0.0004143101089
0.0004273985265
0.0004057993485
0.0003965826097
0.0004014071117
0.0003844500486
0.000368178525
0.0003644776824
0.0003472690462
0.0003218600159
0.0003110720336
0.0002926994557
0.000261032441
0.0002451059838
0.0002282932778
0.0001956458317
0.0001761534996
0.0001636184319
0.0001321223616
0.0001113276162
0.0001010078376
7.09625584e-05
5.466971336e-05
4.408574088e-05
2.322736548e-05
1.687237644e-05
1.002767432e-05
3.885981913e-06
3.267206386e-06
2.200763007e-06
2.934580057e-06
3.335333378e-06
7.501533357e-06
0.0001014290455
0.000127550454
0.0001711970925
0.0002115766464
0.0002061503965
0.0002012691144
0.0002011802425
0.0001786805517
0.000220200829
9.013610027e-05
0.0001223286261
1.514955385e-05
1.968884229e-06
8.552402155e-06
6.720689283e-07
5.001179583e-07
1.050121352e-06
7.119615984e-07
1.870949764e-06
3.100752847e-06
5.239145063e-06
1.207899494e-05
1.748024277e-05
2.6984707e-05
5.389794765e-05
8.952307662e-05
6.37321568e-05
8.139968264e-05
2.591076925e-05
0.0001112522937
0.0002732352857
0.0002367605783
0.0005079315805
0.0007302086729
0.0007870369968
0.0008690933985
0.0009104495074
0.001129191359
0.0008817977929
0.0008165064614
0.001016277545
0.0007368182901
0.0006546836249
0.0007470181864
0.0005745712417
0.0004969545952
0.0005356473334
0.0004332586722
0.0004022751397
0.000424631842
0.0003861053441
0.0003792912
0.0003982565217
0.0003770767486
0.000375720731
0.0003880405194
0.000372495575
0.0003656137082
0.000368685805
0.0003540887148
0.0003376276394
0.0003309957228
0.0003165728338
0.0002918226662
0.0002770558361
0.0002646272948
0.0002362258862
0.0002162575446
0.0002074264924
0.0001783308775
0.0001551401773
0.0001484366118
0.0001171924895
9.217635559e-05
8.485124924e-05
5.320252251e-05
3.459840603e-05
2.584722549e-05
7.63954862e-06
4.667902852e-06
8.746175516e-07
4.930739514e-07
1.670166549e-06
1.012715781e-07
1.899829772e-05
6.594517149e-05
0.0001058144121
0.0001917804344
0.0002120434537
0.0002081707218
0.0002068631829
0.0002047274022
9.329017052e-05
3.240358472e-05
1.142610445e-05
3.638705423e-06
2.146613125e-07
3.457336337e-08
1.506085298e-07
2.492161344e-07
4.4953377e-08
6.981387985e-07
2.032347657e-06
7.921266059e-07
5.166926606e-06
1.160139771e-05
9.152942958e-06
3.003808717e-05
7.773437586e-05
7.531835163e-05
0.0002017970785
0.0002819787289
0.0002467683771
0.0002638258436
0.0003595667795
0.0003337587893
0.0004431208297
0.0004870569014
0.0006334511262
0.0005025427593
0.0005177209658
0.0006971972948
0.0005392745243
0.0005548230467
0.0006636985571
0.0005505717256
0.0005220741668
0.0005749332533
0.0004764027401
0.0004269044251
0.0004546067793
0.0003850579203
0.0003561896407
0.0003792796684
0.0003403362153
0.000334864169
0.0003579377169
0.0003361844946
0.0003407016292
0.0003598287367
0.0003453272126
0.0003477027029
0.000358657508
0.0003462109607
0.0003399052064
0.000340781592
0.000328446461
0.000312063573
0.0003037583043
0.0002914985099
0.0002678857938
0.0002536948182
0.0002425368442
0.00021663674
0.0001993216799
0.0001909196696
0.0001653572436
0.0001429553045
0.000138918996
0.0001096387435
7.941218646e-05
7.565231522e-05
3.788718564e-05
1.69184623e-05
3.228563208e-06
7.932306447e-08
4.08367892e-08
3.261419095e-08
4.336900093e-07
5.98927942e-07
5.30967928e-06
4.766980271e-05
7.560167028e-05
0.000122396028
0.0001742116981
0.0002112804781
0.00012203128
5.638210242e-05
6.613018071e-05
1.945508679e-05
7.100869501e-06
3.014202765e-06
4.299230061e-06
4.015156458e-06
1.521273464e-06
5.052051659e-06
7.039000044e-06
4.157808391e-06
9.438710565e-06
1.138440321e-05
1.115878862e-05
1.256292975e-05
1.926050905e-05
4.852043774e-05
6.188119876e-05
9.923267548e-05
0.0001875373366
0.0002206481287
0.0002058619452
0.0002921950459
0.0001959542071
0.0002093854516
0.0003284867601
0.0002483979731
0.0003034035781
0.0003897094903
0.0003599024864
0.0004044588513
0.0004726753355
0.000428202999
0.0004281599801
0.0004739528654
0.0004076766745
0.0003751527371
0.0004004698442
0.0003406917949
0.0003123463302
0.0003336541655
0.0002941994405
0.0002866654286
0.0003108294233
0.0002878476878
0.0002948485526
0.0003188301314
0.000304632016
0.0003144770633
0.0003328840193
0.0003221596821
0.0003260038599
0.0003349547178
0.0003248874117
0.0003182280351
0.0003168183623
0.0003059653396
0.0002885512237
0.0002792477312
0.0002669334047
0.000242496023
0.0002304844718
0.0002169286675
0.0001920139318
0.0001814979104