/*--------------------------------*- C++ -*----------------------------------*\
| =========                 |                                                 |
| \\      /  F ield         | OpenFOAM: The Open Source CFD Toolbox           |
|  \\    /   O peration     | Version:  2.1.x                                 |
|   \\  /    A nd           | Web:      www.OpenFOAM.org                      |
|    \\/     M anipulation  |                                                 |
\*---------------------------------------------------------------------------*/
FoamFile
{
    version     2.0;
    format      ascii;
    class       surfaceScalarField;
    location    "0.9";
    object      phi;
}
// * * * * * * * * * * * * * * * * * * * * * * * * * * * * * * * * * * * * * //

dimensions      [1 1 -1 0 0 0 0];

internalField   nonuniform List<scalar> 
5536
(
7.101869251e-14
-8.994055107e-14
-4.797623481e-14
1.134341966e-15
-6.941778213e-21
-3.039395159e-15
8.668608858e-15
-6.080453327e-21
-2.730576654e-14
1.289598677e-13
-1.166611602e-19
-1.585292274e-12
-5.914325272e-13
-9.22172017e-13
-8.522047735e-11
-1.198263419e-10
1.177155667e-10
-8.279995392e-11
-1.055677586e-10
6.636587041e-11
7.139064157e-11
-7.899734601e-11
-4.809251828e-11
2.500846311e-11
2.288217088e-11
-8.034929168e-11
-8.384421359e-13
9.007930364e-14
1.408102799e-13
1.149512766e-13
-3.434030117e-13
-1.238967863e-21
8.262018439e-13
1.075080314e-12
-1.884875757e-12
-2.688096972e-21
4.2066537e-12
4.413278168e-12
-8.575896966e-12
-3.859911528e-20
1.779872797e-11
2.404258629e-11
-4.178589256e-11
-1.348592319e-13
1.436564389e-10
3.065423184e-10
-4.536213781e-10
-1.378736321e-11
1.292786059e-09
2.090987442e-09
-3.380021581e-09
3.045193383e-11
1.281782544e-08
-2.150364975e-08
8.584547744e-09
2.300676047e-08
3.797040258e-08
-2.359905308e-08
-8.883592111e-11
-1.93276014e-10
7.887529469e-11
2.027199288e-10
-7.375655324e-11
-1.441898569e-10
7.450882858e-11
1.281034212e-10
-7.046808611e-11
-1.208089048e-10
7.909090301e-11
1.231481632e-10
-1.123594084e-10
-1.36629827e-10
1.483621022e-10
2.019356714e-10
-1.402767283e-09
-4.077873177e-10
6.258020368e-10
6.327981397e-10
-2.357964378e-09
-5.954267136e-10
-1.267324968e-12
5.18064315e-11
-2.089085469e-11
-1.355446309e-11
-5.793172945e-12
1.484271805e-11
1.887403964e-11
-2.764094761e-11
-2.413761759e-11
5.736612934e-11
1.131525061e-10
-1.470634271e-10
-2.060212723e-10
3.860575059e-10
7.458344784e-10
-9.314812736e-10
-1.36710931e-09
2.018130879e-09
3.28315929e-09
-3.951236673e-09
-6.020137747e-09
7.081087937e-09
1.048549014e-08
-1.159224341e-08
-2.131796549e-08
1.688271232e-08
2.473333835e-08
-2.040274752e-08
-3.223975079e-08
1.672028536e-08
2.507483399e-08
-9.669034619e-09
1.562196841e-14
3.67187241e-15
-1.005023626e-14
2.510855648e-15
-2.723441786e-17
-5.673479448e-27
1.496866744e-17
2.488079084e-10
-1.222861772e-10
-2.639582642e-10
7.773176926e-11
1.704421101e-10
-1.684162835e-10
-1.447065491e-10
6.73908387e-11
1.344486195e-10
-2.143239591e-10
-1.352310666e-10
8.247652488e-11
1.545661367e-10
-4.765604323e-10
-3.202595507e-10
1.35164775e-09
1.964773161e-09
-1.379073686e-08
-7.838407079e-09
9.376030621e-09
1.252949534e-08
-2.119467396e-08
-9.381652978e-09
3.017549985e-09
3.141124948e-09
-1.896239031e-09
-9.338378225e-10
4.45462548e-11
7.746479666e-11
-4.236586293e-11
-7.224441879e-11
-5.316060037e-11
1.120401347e-10
1.538522354e-10
-2.159288305e-10
-3.760468932e-10
4.8935502e-10
9.108546178e-10
-1.029391126e-09
-1.762633476e-09
1.978762798e-09
3.255388933e-09
-3.487739546e-09
-5.827754764e-09
5.661773331e-09
8.601207371e-09
-8.47100295e-09
-1.436222126e-08
1.162050319e-08
1.705448516e-08
-1.438045282e-08
-2.482134169e-08
1.552010392e-08
2.292563586e-08
-1.372134943e-08
-1.850417875e-08
8.844285678e-09
1.315536567e-08
-3.561268639e-09
3.554269508e-15
-1.237552518e-15
-8.556167467e-16
-1.009756028e-17
3.890413782e-17
1.676227087e-17
-5.568020517e-17
-1.417199238e-28
1.91129386e-28
-1.506329091e-30
1.330721426e-28
-3.094764668e-29
-1.110734665e-28
-1.63129001e-23
1.037335138e-10
3.86797016e-10
-1.594340286e-09
-5.662297209e-10
1.17558994e-09
1.684751612e-09
-1.736177493e-08
-4.121985278e-09
4.298058479e-09
6.798485072e-09
-3.693452491e-08
-8.270373354e-09
4.882896636e-09
8.160381124e-09
-3.63170341e-08
-8.139411255e-09
7.931130556e-09
1.418692216e-08
-3.919004694e-08
-3.50942791e-08
3.99387462e-08
5.673619303e-08
-5.556442447e-08
-5.202118365e-08
2.234405859e-08
2.921877757e-08
-1.663612884e-08
-9.85869611e-09
8.311831154e-10
1.736866778e-09
-3.791192988e-10
-5.109496459e-10
-2.364804714e-12
1.429394246e-10
9.285002786e-11
-2.500437784e-10
-4.121250615e-10
5.085786578e-10
8.964792618e-10
-9.947293256e-10
-1.770607097e-09
1.787468244e-09
2.952185141e-09
-2.979279218e-09
-5.10710282e-09
4.618492423e-09
7.127285938e-09
-6.667278643e-09
-1.119788282e-08
8.949154551e-09
1.330973475e-08
-1.11092851e-08
-1.841408757e-08
1.261478523e-08
1.85684991e-08
-1.283849931e-08
-2.001631727e-08
1.130871129e-08
1.674921788e-08
-8.11461627e-09
-9.071754698e-09
4.248015595e-09
6.082293631e-09
-1.293547241e-09
1.769063681e-16
6.526694185e-17
-6.162392985e-17
-4.461262586e-17
8.105229346e-17
4.114771834e-17
-1.208902863e-16
-3.358962431e-32
8.106215957e-33
-4.908064667e-33
-2.487006928e-36
6.652990844e-33
2.855605326e-23
-5.875208962e-33
-5.368229393e-23
3.047809026e-23
-2.987877052e-11
-1.249236751e-11
4.771735137e-10
1.039823938e-09
-1.045895105e-08
-6.273115798e-09
2.079195078e-08
2.475123628e-08
-9.354855168e-08
-5.446766904e-08
8.269219652e-08
8.564480256e-08
-2.186973189e-07
-1.104973447e-07
1.229288626e-07
1.238577508e-07
-2.831097611e-07
-1.244144417e-07
1.123208839e-07
1.156106459e-07
-2.462162607e-07
-1.056847997e-07
9.045687506e-08
1.037363748e-07
-1.646392931e-07
-1.031298945e-07
6.270749295e-08
8.102597865e-08
-8.131502072e-08
-4.470511911e-08
1.302510265e-08
1.771706303e-08
-1.623851309e-08
-4.593103086e-09
2.612531956e-10
7.714227757e-10
-1.508718801e-10
-5.742083716e-10
-2.824873336e-10
1.008214978e-09
3.818547448e-10
-1.561355051e-09
-1.604659633e-09
2.20201973e-09
1.80257783e-09
-2.909569182e-09
-4.393535668e-09
3.885267442e-09
5.964608621e-09
-5.46981687e-09
-9.105572932e-09
7.233632086e-09
1.085073961e-08
-9.005964488e-09
-1.476143716e-08
1.046776787e-08
1.549956612e-08
-1.124989061e-08
-1.777530709e-08
1.102071078e-08
1.632180517e-08
-9.614853174e-09
-1.354038712e-08
7.190334332e-09
1.063094189e-08
-4.326638966e-09
-3.974660415e-09
1.889899699e-09
2.429209415e-09
-5.091496976e-10
-1.09012385e-17
-8.032390845e-17
2.124381176e-17
-5.312279023e-21
2.125163577e-16
-5.293940149e-21
7.117907466e-17
-2.741077808e-16
-1.210775233e-36
4.243686414e-16
3.115511462e-16
-6.951507528e-16
-2.137620333e-22
7.210687468e-16
4.569491377e-15
-3.771578973e-15
-6.511199214e-13
2.067033667e-09
1.970821763e-09
-4.036455093e-09
7.162594828e-09
7.779648832e-09
1.097153042e-09
-1.091103943e-08
-1.814673283e-08
6.545723752e-08
5.858069036e-08
-1.554533751e-07
-1.411218429e-07
2.358365449e-07
2.394597035e-07
-4.584785293e-07
-3.442404779e-07
4.455328561e-07
4.338294092e-07
-7.568345616e-07
-4.899905415e-07
5.276178007e-07
5.042895794e-07
-8.317418426e-07
-4.790915897e-07
4.421826975e-07
4.24024104e-07
-6.779067381e-07
-3.514238236e-07
2.799529377e-07
2.722215055e-07
-4.436818109e-07
-1.949308612e-07
1.33742327e-07
1.276678757e-07
-2.377539855e-07
-7.669615445e-08
3.678916653e-08
4.067544255e-08
-9.267834582e-08
-1.513200726e-08
1.427576558e-10
4.245385129e-10
-2.042368853e-09
-5.588149925e-11
-6.174979064e-11
-7.068199705e-12
2.685952937e-10
3.231242963e-10
-2.156341995e-09
-1.738907948e-09
4.847919216e-09
1.835013243e-09
-1.000204461e-08
4.257811846e-09
1.108487542e-08
-7.385424708e-09
-1.225106149e-08
8.766582364e-09
1.320534246e-08
-9.746890327e-09
-1.555966282e-08
1.022460116e-08
1.516889691e-08
-1.003832325e-08
-1.448023224e-08
9.209443615e-09
1.254768867e-08
-7.856757437e-09
-8.016608169e-09
6.127034258e-09
5.021577539e-09
-4.495023359e-09
-5.934987152e-10
3.747907735e-09
-1.277355598e-08
3.307572706e-09
-1.08803033e-11
-7.872367154e-09
-1.249633556e-08
1.078482761e-08
5.660047256e-10
-1.015591441e-08
-1.192422781e-08
-6.100535241e-11
-3.317192273e-10
8.648804436e-10
8.656214251e-10
-1.359848001e-09
-1.256917818e-09
2.028946674e-09
1.953851509e-09
-2.740984885e-09
-2.8102264e-09
2.948759478e-09
2.702867791e-09
-2.958547256e-09
-3.473454725e-09
1.24022395e-09
-1.239541111e-11
2.063294801e-09
-5.839983764e-09
-1.157863525e-08
5.51754088e-08
5.914238691e-08
-1.225513395e-07
-1.555502525e-07
3.047762774e-07
3.122262773e-07
-4.985143945e-07
-5.176298358e-07
7.473447638e-07
7.378345139e-07
-1.054609321e-06
-9.295023698e-07
1.104901453e-06
1.056735987e-06
-1.411279865e-06
-1.102057449e-06
1.130447001e-06
1.069347779e-06
-1.338940207e-06
-9.783773939e-07
8.940233344e-07
8.545073654e-07
-1.021620319e-06
-7.196133942e-07
6.035785693e-07
5.877294045e-07
-7.116150158e-07
-4.661955964e-07
3.59265534e-07
3.579482726e-07
-4.684521033e-07
-2.638597437e-07
1.761382058e-07
1.839472721e-07
-2.745015094e-07
-1.17466977e-07
4.657707606e-08
6.216881639e-08
-1.222662076e-07
-1.063334478e-08
-2.591650098e-10
2.057357423e-09
-1.297589978e-08
3.192195143e-10
-1.102966606e-08
-1.449991262e-09
9.943461742e-09
-6.163732506e-10
-1.22373095e-08
1.198144359e-09
1.033827192e-08
1.328520562e-09
-1.338828863e-08
9.951735465e-10
2.624563476e-08
-1.107341898e-08
-1.489602391e-08
1.45784556e-08
1.611303846e-08
-1.539843237e-08
-1.151287016e-08
1.459552196e-08
1.084330031e-08
-1.134630541e-08
2.477468074e-09
1.560403208e-09
-5.711636894e-09
6.187195166e-09
1.104651523e-08
-7.70874067e-09
-9.416464749e-09
8.534442316e-09
9.038781192e-09
-1.028029489e-08
-7.907310765e-09
9.570840024e-09
6.310463947e-09
-9.332338857e-09
-6.34527934e-09
7.607849572e-09
-1.534754124e-09
1.0765103e-09
-1.591025586e-09
-2.271079591e-09
-2.244474624e-09
2.249083026e-09
1.821258261e-09
-2.126823552e-09
-2.228747542e-09
1.802611164e-09
1.570035123e-09
-1.438344235e-09
-2.103933524e-10
1.292710643e-09
-3.321216335e-10
-1.940638238e-09
3.442160998e-09
-2.548334904e-09
-3.627316037e-09
3.200288895e-09
1.733257232e-08
1.901602325e-08
-4.501468053e-08
-8.944248764e-08
2.109354388e-07
2.249290031e-07
-3.071079559e-07
-4.409007995e-07
7.048274936e-07
7.233783566e-07
-8.808733913e-07
-1.026733939e-06
1.314358374e-06
1.291120109e-06
-1.471232638e-06
-1.465489459e-06
1.59762974e-06
1.521738003e-06
-1.619768992e-06
-1.463033413e-06
1.389221949e-06
1.323845576e-06
-1.268647079e-06
-1.153607163e-06
1.015754559e-06
9.887007015e-07
-8.905102844e-07
-8.465892292e-07
7.318184032e-07
7.282201541e-07
-6.697551893e-07
-6.276927665e-07
5.292148483e-07
5.386273191e-07
-5.260540302e-07
-4.563635531e-07
3.602469358e-07
3.782045235e-07
-4.015062014e-07
-3.030236485e-07
2.078197441e-07
2.303427168e-07
-2.770822262e-07
-1.584888301e-07
7.071168636e-08
8.602601843e-08
-1.510416203e-07
-3.280769631e-08
-4.824731087e-09
8.706834113e-10
1.992942024e-10
3.302777585e-09
-8.436710094e-09
-7.853831163e-09
1.410510792e-08
1.725419934e-08
-5.083244437e-08
-1.748508384e-08
5.639773404e-08
-1.0440993e-08
-1.503584971e-08
1.328534853e-08
1.066055468e-08
-8.661133132e-09
-5.35973059e-09
2.626666826e-09
1.890682958e-09
1.637553471e-09
5.91323466e-09
-2.623189e-09
-9.227169415e-09
3.384814617e-09
7.598648314e-09
-4.074954878e-09
-5.475173409e-09
4.658482095e-09
7.633510005e-09
-5.765405026e-09
-8.100452301e-09
5.528264607e-09
9.054034393e-09
-8.981637384e-09
-5.216440859e-09
1.527443635e-08
2.023008808e-08
-1.841142451e-08
-8.208520626e-09
2.247340632e-08
6.645076141e-09
-3.015730815e-08
-1.520597494e-08
2.671509142e-08
8.609781841e-10
-1.643262316e-08
-1.511638304e-08
9.917668887e-09
3.206967203e-09
-7.019597761e-09
-8.855643633e-09
3.887989807e-09
3.404240931e-09
-9.682393972e-11
-6.554680389e-09
-2.389552381e-09
-5.45193205e-09
4.140805097e-09
-4.099473049e-09
-1.512349716e-08
7.852438979e-08
7.210126215e-08
-9.655371534e-08
-2.0955039e-07
3.928924837e-07
4.257292114e-07
-4.529779698e-07
-7.132436773e-07
9.925150887e-07
1.023062006e-06
-1.027349167e-06
-1.291052673e-06
1.50216069e-06
1.460220582e-06
-1.421448401e-06
-1.494150893e-06
1.489972617e-06
1.389712896e-06
-1.271360909e-06
-1.190642417e-06
1.042310868e-06
9.750693151e-07
-8.213038205e-07
-8.080097311e-07
7.239363463e-07
6.918596759e-07
-5.994959854e-07
-6.153408288e-07
5.774993531e-07
5.612271678e-07
-5.119882223e-07
-5.181808025e-07
4.81536064e-07
4.800845015e-07
-4.41812919e-07
-4.43996517e-07
3.92452952e-07
4.087023237e-07
-3.63377896e-07
-3.737929324e-07
3.036732885e-07
3.392351988e-07
-2.757410484e-07
-3.052328499e-07
2.164370295e-07
2.720173941e-07
-1.811145286e-07
-2.393650655e-07
1.041809477e-07
2.025043995e-07
-8.790024232e-08
-1.355293015e-07
-1.903814714e-08
7.025556697e-08
-2.376490938e-08
-3.34343216e-08
-3.177475756e-08
1.390430758e-08
-3.633506131e-09
-1.434994149e-09
7.353180264e-11
3.359174374e-10
-4.468125299e-10
1.04432496e-10
1.413004419e-10
-1.987671404e-10
-2.027675786e-10
1.880277945e-10
1.333678966e-08
-1.112154771e-10
-1.453167922e-08
2.858139108e-10
6.356081046e-09
-6.168422784e-10
-9.602034161e-09
-2.876039136e-09
1.025594269e-08
5.689211987e-09
-6.897162244e-09
-9.566145799e-10
2.214290851e-09
-3.779268368e-09
-2.109627503e-10
3.540508296e-09
2.707139831e-09
-3.419261695e-09
-5.258188354e-10
3.758895217e-09
4.106963217e-09
-4.882527048e-09
-1.117986145e-09
7.05883446e-09
7.938516685e-09
-1.04205986e-08
-2.198767266e-09
1.331327208e-08
8.080971274e-09
-1.26588896e-08
-4.468059536e-09
1.024101156e-08
1.119395413e-08
-9.975361267e-09
-9.081726593e-09
8.017897197e-09
1.000262114e-08
-9.077230337e-09
4.203871735e-09
-2.523998187e-09
5.21055651e-09
-5.713014575e-09
-3.876971731e-08
1.290985742e-07
1.147815663e-07
-1.244610287e-07
-2.942796481e-07
4.808665898e-07
5.271821602e-07
-4.773863065e-07
-7.863604914e-07
9.928415348e-07
1.014195324e-06
-9.079320547e-07
-1.16151528e-06
1.268729355e-06
1.195481954e-06
-1.082944176e-06
-1.102572546e-06
1.034491846e-06
9.154125446e-07
-8.177396211e-07
-7.250113345e-07
6.762951433e-07
5.952737399e-07
-6.000489826e-07
-5.274938581e-07
5.381143702e-07
4.873819919e-07
-5.1339005e-07
-4.642168904e-07
4.871206795e-07
4.445748626e-07
-4.844077977e-07
-4.235227003e-07
4.321887067e-07
3.990320992e-07
-4.426846874e-07
-3.70438898e-07
3.587828982e-07
3.377435048e-07
-3.771351219e-07
-3.012699382e-07
2.693053672e-07
2.616266949e-07
-2.911905725e-07
-2.196998405e-07
1.731770913e-07
1.767967038e-07
-1.965320982e-07
-1.347515241e-07
8.766630113e-08
9.591939456e-08
-1.088242598e-07
-6.278020353e-08
3.114522884e-08
3.721453398e-08
-4.334616564e-08
-1.951859113e-08
6.926939379e-09
8.797695539e-09
-1.021350327e-08
-3.250477588e-09
7.219229318e-10
9.372134704e-10
-1.116094057e-09
-9.322301652e-11
1.81809137e-10
-1.047343357e-10
-1.327581742e-10
1.275340932e-10
1.183375043e-08
-1.084801356e-10
-7.535338762e-09
8.365979354e-11
6.196314461e-09
-4.272884431e-10
-5.116829828e-09
-1.542750393e-09
2.161653952e-10
9.793739289e-10
3.690239774e-09
2.093325075e-09
4.172847992e-10
-4.328212023e-09
3.477442151e-09
2.611129554e-09
-1.671234202e-11
-1.458090549e-09
1.512972614e-09
7.86240804e-10
3.26607625e-10
-4.283522602e-10
-3.095441574e-10
2.538452393e-10
3.379611727e-10
-1.875833258e-10
-1.850937705e-10
3.161365483e-10
1.680926128e-09
-8.87698632e-10
-8.747505129e-10
2.469714172e-09
5.617581856e-09
-5.597125263e-09
-4.166010292e-09
1.174454864e-08
7.74655249e-09
-5.223326516e-09
1.033162304e-08
-1.368235139e-08
8.589768593e-09
1.096003429e-08
-8.879059875e-09
-5.172632023e-08
1.269501704e-07
1.496652243e-07
-1.236786331e-07
-3.066335641e-07
4.488340841e-07
4.949525516e-07
-4.024856214e-07
-6.686571217e-07
7.910915429e-07
7.919245091e-07
-6.55832938e-07
-8.490685002e-07
8.902973184e-07
8.302677926e-07
-7.085382598e-07
-7.260266336e-07
6.459598823e-07
5.80269266e-07
-5.490081439e-07
-4.90008042e-07
5.539074638e-07
4.667584753e-07
-5.1106887e-07
-4.527690484e-07
4.991932222e-07
4.426894846e-07
-4.832604439e-07
-4.393397177e-07
4.85434238e-07
4.345909063e-07
-4.818076396e-07
-4.258560404e-07
4.566438716e-07
4.116396903e-07
-4.66002704e-07
-3.911284898e-07
4.006937326e-07
3.641211645e-07
-4.214085063e-07
-3.310203065e-07
3.194427105e-07
2.929541562e-07
-3.475665115e-07
-2.517015318e-07
2.252013162e-07
2.093448716e-07
-2.563022971e-07
-1.678558911e-07
1.3392104e-07
1.288026808e-07
-1.634951319e-07
-9.331547004e-08
5.951579747e-08
6.243199239e-08
-8.127235109e-08
-3.733260172e-08
1.54242161e-08
1.908865645e-08
-2.425589244e-08
-7.920831117e-09
1.622353812e-09
2.573712156e-09
-2.502808188e-09
-6.583203651e-10
1.209636281e-10
6.817637225e-11
-1.714714785e-10
7.410868633e-11
3.614424612e-09
-9.274700423e-11
-1.232864868e-09
-5.711682478e-10
3.078011642e-09
1.584741525e-10
-1.767234365e-09
-1.218492698e-09
-4.785998997e-09
1.667895097e-09
4.81795945e-09
-8.463899012e-10
-9.219617939e-09
-2.72468005e-09
1.332785462e-08
1.029151684e-08
-4.617412773e-09
-7.639039046e-09
3.407543074e-09
2.751681378e-09
1.512056049e-10
-7.087141362e-10
-5.959734011e-11
2.058513133e-10
1.067290573e-10
-1.242884004e-10
-4.841886133e-11
1.673487005e-10
5.234214138e-10
-3.93562083e-10
-2.785019995e-10
1.071844927e-09
3.164512055e-09
-2.538587186e-09
-1.379990747e-09
6.404206034e-09
3.025212364e-09
-9.642063285e-09
-2.158352263e-09
6.339836212e-09
1.136273315e-09
-1.966128181e-10
-3.712244736e-09
1.319317812e-08
8.109953515e-09
-7.498569462e-09
-5.393205055e-08
1.161722535e-07
1.43712866e-07
-1.058721718e-07
-2.649179838e-07
3.444479958e-07
3.813097089e-07
-2.802294519e-07
-4.643076172e-07
5.173676732e-07
5.055635261e-07
-4.000323152e-07
-5.116292459e-07
5.530795687e-07
4.971911058e-07
-4.510889122e-07
-4.773691851e-07
5.080229066e-07
4.568302768e-07
-4.54870501e-07
-4.293922365e-07
4.685689416e-07
4.027718687e-07
-4.343438518e-07
-4.013905745e-07
4.625135432e-07
4.055864732e-07
-4.370798654e-07
-4.122470962e-07
4.717118463e-07
4.183209485e-07
-4.552650395e-07
-4.212341484e-07
4.691395617e-07
4.189431892e-07
-4.657218356e-07
-4.100363808e-07
4.37902699e-07
3.937548904e-07
-4.493853415e-07
-3.701079381e-07
3.747629584e-07
3.398720403e-07
-3.996644273e-07
-3.045423561e-07
2.894743322e-07
2.660861579e-07
-3.230871827e-07
-2.264300217e-07
1.972366385e-07
1.869019967e-07
-2.33523407e-07
-1.482144542e-07
1.091284924e-07
1.108610856e-07
-1.423287349e-07
-7.591852031e-08
3.886639867e-08
4.553232398e-08
-6.104181005e-08
-2.232791773e-08
4.733391748e-09
7.884161956e-09
-1.051180609e-08
-1.649271498e-09
1.741537088e-10
3.765073309e-10
-8.786387031e-11
-1.073031733e-10
2.739488039e-10
4.832153921e-12
-1.581185863e-11
1.639697777e-12
3.333634896e-10
8.743262269e-10
2.010483846e-09
-1.778813361e-09
-4.118573381e-09
2.121481209e-09
4.617739775e-09
-7.654502013e-10
-9.603065918e-09
6.690004542e-11
2.827575836e-09
-4.564805173e-10
-2.898316055e-10
4.526229949e-11
4.112511416e-12
7.583815369e-12
3.36904339e-12
-7.740206693e-12
-3.845280885e-13
7.490237139e-12
7.638413819e-12
-8.769702688e-12
1.723945257e-14
2.034298555e-11
1.189044333e-10
-1.03396454e-10
-3.621099457e-11
4.219548977e-10
9.894268164e-10
-1.24832599e-09
-6.278287676e-10
3.188021983e-09
2.122085043e-09
-6.588895502e-09
8.5582552e-10
1.301497444e-08
-5.219490254e-09
1.612855792e-08
-1.869887612e-08
-5.179010129e-10
1.431520799e-09
-1.093991856e-08
2.848902868e-08
8.845270364e-09
-9.295776678e-09
-6.936854183e-08
9.164688185e-08
1.305139361e-07
-7.131634995e-08
-1.922128469e-07
2.139684353e-07
2.387465691e-07
-1.52685733e-07
-2.708026667e-07
3.022812307e-07
2.952914256e-07
-2.27159953e-07
-3.148574321e-07
3.685509575e-07
3.285108292e-07
-3.021770286e-07
-3.353000405e-07
3.974386065e-07
3.365860127e-07
-3.472094409e-07
-3.358405834e-07
3.980529892e-07
3.368332219e-07
-3.604673533e-07
-3.423748395e-07
4.076354266e-07
3.524084926e-07
-3.751900849e-07
-3.656718963e-07
4.330088237e-07
3.801042091e-07
-4.057191605e-07
-3.933180052e-07
4.555972651e-07
4.029997975e-07
-4.38833078e-07
-4.072154711e-07
4.547688505e-07
4.045746046e-07
-4.532055572e-07
-3.943315156e-07
4.202427055e-07
3.764490907e-07
-4.348924352e-07
-3.516303027e-07
3.546174663e-07
3.212330642e-07
-3.820226616e-07
-2.869112334e-07
2.698306427e-07
2.502762341e-07
-3.039812225e-07
-2.125513098e-07
1.786283517e-07
1.744240266e-07
-2.149478219e-07
-1.362579535e-07
9.089847934e-08
9.859988932e-08
-1.258100106e-07
-6.284609209e-08
2.319824031e-08
3.18879661e-08
-4.565910727e-08
-9.980260858e-09
1.529622075e-11
5.303778432e-11
1.907652289e-12
-7.516362465e-12
-7.346763332e-12
1.543714665e-12
1.395221238e-11
2.257149055e-12
-1.942119689e-09
-5.822155348e-11
9.239609479e-10
5.776236202e-10
-4.981114981e-09
-3.59408512e-09
6.410607268e-09
6.840965078e-09
-1.920524546e-09
-8.48188609e-09
5.826819824e-09
3.911267393e-09
-1.248655827e-10
-5.282659037e-10
5.494911901e-10
1.542496311e-10
-1.507292179e-11
-1.056472166e-10
1.284460835e-10
9.007970909e-11
-4.166045455e-11
-1.088049775e-10
1.677725045e-10
1.8860595e-10
-1.222365248e-10
-3.736422386e-10
3.035813348e-10
7.12051171e-10
3.162944283e-11
-1.260176259e-09
2.924710837e-10
2.238976244e-09
-4.340001705e-09
-4.011022306e-09
3.548009492e-09
8.392379227e-09
-7.083267258e-09
4.17594916e-09
8.522161827e-09
-1.009957167e-08
-1.47178284e-09
1.454957129e-09
-3.871300284e-08
5.043945139e-08
8.377633855e-09
-6.180287803e-09
-6.621090857e-08
4.967466136e-08
8.234388591e-08
-3.231766234e-08
-9.806366463e-08
1.047389646e-07
1.176365819e-07
-7.13985562e-08
-1.432407684e-07
1.717608551e-07
1.723291117e-07
-1.297223758e-07
-2.005676191e-07
2.460486192e-07
2.243321318e-07
-1.972993674e-07
-2.41825195e-07
2.989820981e-07
2.533849283e-07
-2.53145134e-07
-2.61167413e-07
3.22261842e-07
2.681692076e-07
-2.842813823e-07
-2.770562303e-07
3.408553016e-07
2.894370737e-07
-3.057496921e-07
-3.056175584e-07
3.74358255e-07
3.247350121e-07
-3.401025647e-07
-3.450770969e-07
4.158191684e-07
3.64471814e-07
-3.872642368e-07
-3.806759612e-07
4.444280832e-07
3.916699588e-07
-4.285063465e-07
-3.958667254e-07
4.428354528e-07
3.922539319e-07
-4.437967446e-07
-3.804861306e-07
4.045089127e-07
3.609333932e-07
-4.218109927e-07
-3.346554077e-07
3.350651992e-07
3.03256044e-07
-3.632164402e-07
-2.686793812e-07
2.488995064e-07
2.327654239e-07
-2.802376101e-07
-1.970019329e-07
1.608219033e-07
1.620095002e-07
-1.914658438e-07
-1.274279748e-07
7.78182614e-08
9.234208639e-08
-1.09755399e-07
-5.70942839e-08
4.815407444e-09
2.643357374e-08
-3.239416982e-08
-1.075206369e-10
-2.164751567e-11
6.940236359e-12
4.620579988e-11
7.50908056e-12
-1.146595714e-09
-4.674514956e-10
3.662537172e-09
2.149634234e-09
-8.868393381e-09
-7.156421508e-09
1.010867134e-08
8.926540439e-09
-5.897162836e-09
-6.025453617e-09
2.924772241e-09
1.688747603e-09
-8.071332924e-10
-4.304821685e-10
7.138022398e-10
3.505778816e-10
-3.454632536e-10
-3.434513925e-10
5.915591409e-10
3.746062659e-10
-4.058666731e-10
-4.721958364e-10
7.305638604e-10
6.531838196e-10
-5.429723379e-10
-8.924579865e-10
7.675583139e-10
1.105849594e-09
-3.468449222e-10
-1.191545597e-09
3.681412642e-10
1.122820357e-09
-1.29118188e-09
-1.013910235e-09
2.809014187e-10
1.733583055e-09
-2.705351704e-09
8.271469728e-10
3.722290261e-09
-2.915042377e-09
-2.711356862e-09
3.741754659e-10
-2.373867768e-08
1.734455182e-08
3.268400229e-09
-1.629576891e-09
-1.798199782e-08
1.725110036e-08
2.538692978e-08
-1.030689112e-08
-3.826880094e-08
4.836449309e-08
5.632177528e-08
-3.251607066e-08
-7.836793717e-08
9.652985787e-08
1.02239221e-07
-7.011211923e-08
-1.257599358e-07
1.551108195e-07
1.472603445e-07
-1.193174155e-07
-1.657355437e-07
2.104487046e-07
1.808167331e-07
-1.715591807e-07
-1.927992572e-07
2.472745782e-07
2.028129872e-07
-2.118912776e-07
-2.127805049e-07
2.709257198e-07
2.248119603e-07
-2.373029615e-07
-2.403667839e-07
3.042562518e-07
2.598370157e-07
-2.681786826e-07
-2.826336019e-07
3.541508404e-07
3.07385967e-07
-3.17730888e-07
-3.321477392e-07
4.057212959e-07
3.546602392e-07
-3.76626747e-07
-3.72668542e-07
4.373904801e-07
3.842103051e-07
-4.232105879e-07
-3.878073125e-07
4.333435623e-07
3.825790179e-07
-4.379704861e-07
-3.683146844e-07
3.886093947e-07
3.455482349e-07
-4.104605459e-07
-3.155736835e-07
3.107841921e-07
2.804108803e-07
-3.421372472e-07
-2.425773345e-07
2.186598649e-07
2.048491344e-07
-2.478895477e-07
-1.699209136e-07
1.349485468e-07
1.400744983e-07
-1.506448503e-07
-1.172211553e-07
7.568838068e-08
1.031336498e-07
-6.891968137e-08
-9.917288223e-08
-4.11967411e-10
5.017717016e-08
-1.997352568e-08
-1.678871857e-08
-1.033101111e-08
9.638224011e-09
-3.703976552e-09
-3.439255746e-10
-6.361090934e-09
-3.585237139e-09
2.050977177e-09
2.095163516e-09
-1.121271808e-09
-1.251314406e-09
7.092403212e-10
6.654026742e-10
-5.168354749e-10
-4.133699351e-10
4.06414257e-10
3.434728967e-10
-7.818241135e-10
-4.374771625e-10
8.419024779e-10
6.192173076e-10
-1.033478593e-09
-8.515343874e-10
1.149901007e-09
1.076814211e-09
-8.798778482e-10
-1.20461778e-09
8.046160739e-10
1.169761467e-09
-3.430506205e-10
-9.905393745e-10
2.86882173e-10
7.533962469e-10
-1.224339138e-10
-5.483854325e-10
1.182559416e-10
4.37957866e-10
-1.897978329e-10
1.449985286e-10
6.210031768e-10
-4.562579233e-10
2.233638626e-11
1.469432731e-10
-1.507649994e-09
1.824764259e-09
6.951887779e-10
-2.535789504e-10
-3.784471428e-09
5.79106157e-09
8.299537708e-09
-3.058117723e-09
-1.597705957e-08
2.105530186e-08
2.688275086e-08
-1.306113774e-08
-4.066193629e-08
4.949421824e-08
5.652963065e-08
-3.392667058e-08
-7.347133187e-08
8.973858917e-08
9.052573398e-08
-6.594453632e-08
-1.06899867e-07
1.369955573e-07
1.219016014e-07
-1.070510693e-07
-1.349602786e-07
1.786577458e-07
1.459724531e-07
-1.479883403e-07
-1.55771056e-07
2.055956731e-07
1.66067686e-07
-1.762636635e-07
-1.786680023e-07
2.331776693e-07
1.947996688e-07
-2.003868128e-07
-2.150728532e-07
2.794839852e-07
2.394949625e-07
-2.409889692e-07
-2.672230947e-07
3.422091244e-07
2.964690772e-07
-3.038742824e-07
-3.248292041e-07
4.012536907e-07
3.497875036e-07
-3.721351425e-07
-3.690597061e-07
4.34504936e-07
3.80736495e-07
-4.222511003e-07
-3.833442973e-07
4.268798403e-07
3.759505994e-07
-4.356829746e-07
-3.583086339e-07
3.734737953e-07
3.31031865e-07
-4.015594762e-07
-2.955573896e-07
2.836882737e-07
2.541062847e-07
-3.227422646e-07
-2.095134532e-07
1.804443072e-07
1.647917564e-07
-2.187111116e-07
-1.228462476e-07
9.085676958e-08
8.605350561e-08
-1.187417125e-07
-5.60622962e-08
3.323991189e-08
3.36125413e-08
-4.742742326e-08
-1.84626094e-08
7.435815516e-09
9.228159863e-09
-1.189973179e-08
-4.262846729e-09
1.866986868e-10
1.894513049e-09
-1.137465492e-09
-1.770458304e-10
-7.781963339e-10
-7.573401003e-10
7.9251346e-10
8.203041451e-10
-4.210383985e-10
-6.462380235e-10
5.017488039e-10
4.745300367e-10
-7.519572435e-10
-4.421026066e-10
6.054802594e-10
5.407925973e-10
-9.899673024e-10
-6.760016792e-10
6.971641135e-10
7.439846185e-10
-5.952876226e-10
-6.999445038e-10
4.072055173e-10
5.804063138e-10
-2.327614841e-10
-4.516914365e-10
2.010377689e-10
3.609812757e-10
-1.374307203e-10
-3.395135284e-10
1.97622827e-10
4.28241529e-10
-2.566546024e-10
5.293875037e-10
1.342654458e-09
-7.110402292e-10
-8.088933962e-10
-8.442112038e-09
4.74630897e-09
-2.106620813e-10
1.11655838e-09
-4.139580434e-09
1.510883508e-09
4.902746781e-09
-1.322634538e-10
-7.712421329e-09
7.751906659e-09
1.274269924e-08
-4.354454964e-09
-1.995194252e-08
2.255059768e-08
2.919409224e-08
-1.446416308e-08
-4.011112319e-08
4.727171531e-08
5.225733948e-08
-3.294389474e-08
-6.51133206e-08
8.177682312e-08
7.798344428e-08
-6.099555653e-08
-9.00202312e-08
1.202137821e-07
1.005538359e-07
-9.55981734e-08
-1.09604885e-07
1.495180269e-07
1.181000551e-07
-1.253605556e-07
-1.273544894e-07
1.706810028e-07
1.384830216e-07
-1.446006346e-07
-1.526859906e-07
2.037964116e-07
1.715111366e-07
-1.692680847e-07
-1.959521031e-07
2.63276733e-07
2.254653501e-07
-2.221785623e-07
-2.580790969e-07
3.370250351e-07
2.912030355e-07
-2.975163936e-07
-3.222935735e-07
4.012413799e-07
3.490201768e-07
-3.721893354e-07
-3.691890259e-07
4.35300314e-07
3.807811719e-07
-4.250751372e-07
-3.821442175e-07
4.23178268e-07
3.722470831e-07
-4.363605935e-07
-3.509574753e-07
3.602960459e-07
3.191966474e-07
-3.939227097e-07
-2.789315423e-07
2.602174814e-07
2.330959374e-07
-3.033787446e-07
-1.852020961e-07
1.519667008e-07
1.388973663e-07
-1.905645954e-07
-9.744980027e-08
6.633261022e-08
6.322051947e-08
-9.07781624e-08
-3.736041686e-08
1.873356432e-08
1.973700581e-08
-2.875221329e-08
-9.122860233e-09
2.503980271e-09
3.620890655e-09
-4.683191977e-09
-1.209864564e-09
-6.269613119e-10
1.021410361e-10
4.25611287e-10
5.135776736e-10
-6.026692671e-10
-7.883393718e-10
7.737756105e-10
9.019362118e-10
-5.697075801e-10
-9.586467856e-10
8.735533089e-10
1.007973066e-09
-5.340906846e-10
-1.035636322e-09
8.461770429e-10
1.010323819e-09
-3.352041748e-10
-9.30025712e-10
6.608701608e-10
8.251889213e-10
-2.280598224e-10
-7.422355968e-10
5.482931355e-10
7.416157808e-10
-3.740845325e-10
-9.166209961e-10
9.536746641e-10
1.42440803e-09
-1.131989426e-09
2.427283583e-09
4.705959288e-09
-2.442651444e-09
1.614196468e-08
-3.21927655e-09
5.927205728e-09
-1.331283876e-08
-1.419379496e-09
1.125742406e-08
3.459874504e-09
-1.012378981e-08
1.816818422e-09
1.011942689e-08
7.026447425e-10
-1.188708747e-08
8.783682911e-09
1.572010194e-08
-4.686073503e-09
-2.135118233e-08
2.217182166e-08
2.871201338e-08
-1.422473357e-08
-3.766309338e-08
4.434100969e-08
4.767648938e-08
-3.132949043e-08
-5.781050323e-08
7.432497589e-08
6.707575283e-08
-5.647121198e-08
-7.504857506e-08
1.036676823e-07
8.218265882e-08
-8.431402333e-08
-8.920423658e-08
1.223148008e-07
9.623158589e-08
-1.036216492e-07
-1.035931795e-07
1.384999776e-07
1.136579818e-07
-1.122293227e-07
-1.298363148e-07
1.822850285e-07
1.536199947e-07
-1.451090858e-07
-1.838457395e-07
2.55462082e-07
2.18158023e-07
-2.128440126e-07
-2.54241651e-07
3.363780952e-07
2.900149133e-07
-2.955794741e-07
-3.233347253e-07
4.049984073e-07
3.518202136e-07
-3.757337612e-07
-3.729235518e-07
4.395792028e-07
3.84206596e-07
-4.318304937e-07
-3.837275456e-07
4.212289662e-07
3.704036881e-07
-4.39853775e-07