/*--------------------------------*- C++ -*----------------------------------*\
| =========                 |                                                 |
| \\      /  F ield         | OpenFOAM: The Open Source CFD Toolbox           |
|  \\    /   O peration     | Version:  2.1.x                                 |
|   \\  /    A nd           | Web:      www.OpenFOAM.org                      |
|    \\/     M anipulation  |                                                 |
\*---------------------------------------------------------------------------*/
FoamFile
{
    version     2.0;
    format      ascii;
    class       volVectorField;
    location    "0.9";
    object      Uf;
}
// * * * * * * * * * * * * * * * * * * * * * * * * * * * * * * * * * * * * * //

dimensions      [0 1 -1 0 0 0 0];

internalField   nonuniform List<vector> 
2828
(
(-0.1592116651 0 -0.1504604146)
(-0.1927852473 0 -0.1342967357)
(-0.2707124627 0 -0.1353279381)
(-0.247229835 0 0.03499823786)
(-0.6941201644 0 -0.02211109774)
(-0.1202172142 0 -0.1801709153)
(-0.1267369773 0 -0.1673943059)
(-0.1424773619 0 -0.1707594702)
(-0.2071006888 0 -0.1781545281)
(-0.220421088 0 -0.2983531457)
(0.252583954 0 -0.3296972798)
(0.4789053803 0 -0.3276512329)
(0.3084523448 0 -0.2122049766)
(0.4762428725 0 -0.3367899304)
(0.9581297702 0 -0.6828216571)
(1.182999151 0 -0.8435894508)
(1.266190225 0 -0.8558664949)
(-0.1183555148 0 -0.236551727)
(-0.1191427267 0 -0.2266228652)
(-0.1328974114 0 -0.225738097)
(-0.1456709662 0 -0.2190628943)
(-0.1833281588 0 -0.2298554823)
(-0.4220704796 0 -0.2917299143)
(0.07004321813 0 -0.1930977693)
(0.2286630238 0 -0.1568042368)
(0.2330566545 0 -0.1621619514)
(0.4997263584 0 -0.3519673864)
(0.8339793853 0 -0.5894530816)
(1.072217254 0 -0.756062815)
(1.192778483 0 -0.822804204)
(1.242527605 0 -0.821200348)
(-0.4048989169 0 0.1801345784)
(-0.3961879246 0 -0.1370333441)
(-0.1147054968 0 -0.258670501)
(-0.1239933485 0 -0.2636580931)
(-0.1395989043 0 -0.2796337474)
(-0.1594081194 0 -0.2978652628)
(-0.7979072323 0 -1.03821717)
(-1.671382583 0 -1.639823073)
(-0.9769687258 0 -0.4997934039)
(-0.2186415706 0 -0.2677282109)
(0.2255120013 0 -0.157922279)
(0.4455375508 0 -0.3136415873)
(0.7180472145 0 -0.5069425003)
(0.9432655383 0 -0.6639880485)
(1.088949571 0 -0.7562203353)
(1.166977377 0 -0.7836410484)
(1.171487636 0 -0.7616245001)
(-0.412253538 0 -0.1844139086)
(-0.4480007584 0 -0.1789306783)
(-0.5386236891 0 0.2676184639)
(-0.7024593247 0 0.656827365)
(-0.1028946728 0 -0.2638216982)
(-0.6899339864 0 -0.7800242769)
(-1.221639433 0 -1.242096856)
(-1.268661938 0 -1.32307396)
(-1.373723941 0 -1.904048095)
(-2.614908722 0 -3.600692935)
(-3.532133253 0 -4.105979062)
(-0.9168635313 0 -0.5603651566)
(0.1281433392 0 -0.2236539139)
(0.3933843494 0 -0.2769500155)
(0.6163472683 0 -0.4351379741)
(0.8232366248 0 -0.5795367354)
(0.9768474849 0 -0.680381601)
(1.071437605 0 -0.7296747878)
(1.106540419 0 -0.7281241727)
(1.03129626 0 -0.6659586839)
(-0.3924350313 0 -3.343976504)
(-0.4979966144 0 -0.2340680603)
(-0.6623301444 0 0.2623273381)
(-0.4633354235 0 0.9671009081)
(-0.601215443 0 0.7069987489)
(-0.2802080527 0 -0.407198781)
(-1.461023331 0 -1.485467567)
(-1.8960502 0 -1.83937231)
(-2.054610892 0 -1.949877061)
(-2.05236982 0 -1.975162711)
(-2.043021854 0 -2.405079752)
(-2.632833587 0 -3.988812766)
(-2.781218201 0 -4.218678094)
(-0.7427042419 0 -0.8443551333)
(0.3539269215 0 -0.2666658196)
(0.5105127202 0 -0.3725646957)
(0.7216830693 0 -0.5142337522)
(0.8687671178 0 -0.606719133)
(0.9735379673 0 -0.6679308374)
(1.026727787 0 -0.6853362305)
(1.009143365 0 -0.6530775981)
(0.8275786012 0 -0.5244701284)
(0.5106752049 0 -1.179853597)
(-0.06222423988 0 -0.2615982019)
(0.855638078 0 -0.6644994263)
(1.387127028 0 0.633360893)
(0.5408198117 0 -0.6016304412)
(0.6268793642 0 -0.6622335605)
(-0.6876199664 0 -0.7886529922)
(-1.689681089 0 -1.742751893)
(-2.071773551 0 -2.041549323)
(-2.316713033 0 -2.1951683)
(-2.451918756 0 -2.268346587)
(-2.476352823 0 -2.278325765)
(-2.394067018 0 -2.217574032)
(-2.187160623 0 -2.075121116)
(-1.624086709 0 -1.881731095)
(0.652898841 0 -0.5585506186)
(0.275107281 0 0.4659694058)
(0.2926071977 0 0.3869602038)
(0.7775542894 0 -0.5289710482)
(0.8971199798 0 -0.6066807204)
(0.9527957551 0 -0.6324689891)
(0.9594597096 0 -0.6113875428)
(0.7739906256 0 -0.4767808441)
(-0.3240522635 0 0.04577549549)
(-0.3379853294 0 0.2319714178)
(-0.2436226795 0 0.277898006)
(0.3350030463 0 -0.3746742354)
(0.4366245116 0 -0.471747231)
(0.5141498521 0 -0.5405687751)
(0.567562622 0 -0.5562745704)
(-0.6081112562 0 -0.8132448725)
(-1.61859388 0 -1.749148242)
(-2.04377441 0 -2.097818664)
(-2.370476411 0 -2.31990827)
(-2.635156771 0 -2.480085704)
(-2.821070089 0 -2.606650889)
(-2.897994845 0 -2.674016395)
(-2.834070481 0 -2.624350864)
(-2.60565324 0 -2.428245012)
(-2.20265899 0 -2.089637917)
(-1.60729492 0 -1.619735564)
(0.01009431057 0 -0.2174977437)
(0.573203025 0 0.01657668556)
(0.7543843336 0 -0.0559008415)
(0.707100515 0 -0.2869066625)
(0.7252549791 0 -0.575085261)
(0.4042293008 0 -0.4306208082)
(-0.2400580412 0 0.1810495333)
(-0.2139424562 0 0.2066932515)
(-0.17098495 0 0.2437549017)
(-0.06191498078 0 0.2565106577)
(0.3423895548 0 -0.3806478545)
(0.4300424857 0 -0.4254111979)
(0.4011220349 0 -0.4176134181)
(-0.02385735135 0 -0.2496407173)
(-0.2003355334 0 -0.2422920656)
(-1.278781949 0 -1.475554835)
(-1.845087209 0 -2.005754855)
(-2.220753636 0 -2.300582095)
(-2.582580957 0 -2.54149216)
(-2.959493434 0 -2.801724535)
(-3.320436234 0 -3.102993711)
(-3.556039187 0 -3.31747329)
(-3.548192889 0 -3.306864316)
(-3.283245002 0 -3.068838918)
(-2.798487498 0 -2.642688924)
(-2.153238107 0 -2.073330519)
(-1.45868446 0 -1.419375832)
(0.5436142374 0 0.5920557801)
(0.5224230823 0 0.7100377261)
(0.6550412259 0 -0.05396975484)
(0.3701562385 0 -0.4246333057)
(0.1283568329 0 0.002405996373)
(-0.240142807 0 0.1306301794)
(-0.2127268613 0 0.1490602208)
(-0.1742753789 0 0.1235515801)
(-0.3557017334 0 0.3578340835)
(-0.6970522405 0 0.6228591028)
(-0.520970162 0 0.5950947118)
(-0.4036336031 0 0.4068490826)
(-0.3477960563 0 0.3780702315)
(-0.1722921375 0 -0.1822720954)
(-0.2390238632 0 -0.1255596346)
(-0.6052013561 0 -0.817764005)
(-1.486426345 0 -1.737592841)
(-1.90418296 0 -2.120579329)
(-2.296172774 0 -2.41085773)
(-2.775439054 0 -2.72850877)
(-3.440190705 0 -3.210110251)
(-4.150459348 0 -3.818717694)
(-4.616447358 0 -4.214119144)
(-4.699008023 0 -4.268346748)
(-4.505833865 0 -4.101530996)
(-4.045382655 0 -3.720829928)
(-3.272347346 0 -3.0882073)
(-2.186472822 0 -2.205648998)
(-1.01834504 0 -1.193884616)
(0.06968841521 0 -0.3996084958)
(0.2445393288 0 -0.3639847049)
(-0.4353076697 0 -0.01637346615)
(-0.4468168713 0 0.249869385)
(-0.7634084775 0 0.004296053003)
(-0.2023514678 0 0.0267898348)
(-0.2183914852 0 -0.1113165426)
(-0.271111124 0 0.3242652867)
(-0.7791398813 0 1.001817029)
(-0.9271796065 0 1.477951798)
(-0.7997156907 0 1.363510842)
(-0.4836693827 0 0.6866604023)
(-0.3040305739 0 0.3224279031)
(-0.4430242445 0 0.185395547)
(-0.752874104 0 -1.040352944)
(-1.443119146 0 -1.770860152)
(-1.852862059 0 -2.121117013)
(-2.308196031 0 -2.430853849)
(-3.007744496 0 -2.912389666)
(-4.097698422 0 -3.671015399)
(-4.858025049 0 -4.317090052)
(-5.274368088 0 -4.735938603)
(-5.416606025 0 -4.846813726)
(-5.427539783 0 -4.850550857)
(-5.320918392 0 -4.752040759)
(-5.079052856 0 -4.525830419)
(-4.656876242 0 -4.138258809)
(-3.971964291 0 -3.559726089)
(-2.957662696 0 -2.766184262)
(-1.802884144 0 -1.788593963)
(-0.7987095126 0 -0.6893074119)
(-0.4964647413 0 0.38802793)
(-0.8602059566 0 -0.001697609483)
(-0.1510195135 0 0.01459026357)
(0.1050563478 0 0.02351552902)
(0.3183865695 0 0.2579090797)
(0.7517247652 0 0.3798108402)
(-0.4259969948 0 0.4149233889)
(-0.4253293407 0 0.501913149)
(-0.4046772549 0 0.6547084326)
(-0.2619204502 0 0.5995092091)
(-0.362477978 0 0.4979320857)
(-0.6006434407 0 -1.032951381)
(-1.283376202 0 -1.685344718)
(-1.730343915 0 -2.030194495)
(-2.278430616 0 -2.396715527)
(-3.139322462 0 -3.135503467)
(-4.210707576 0 -3.991556683)
(-4.969355704 0 -4.314412715)
(-5.421947286 0 -4.86263447)
(-5.646451417 0 -5.048871058)
(-5.74392128 0 -5.130027981)
(-5.729333334 0 -5.115247524)
(-5.583306473 0 -4.976940023)
(-5.249158956 0 -4.671622072)
(-4.631380176 0 -4.171928358)
(-3.670466967 0 -3.480839349)
(-2.440057594 0 -2.555254401)
(-1.080129237 0 -1.255045455)
(-0.3711995409 0 0.2175294875)
(-0.8155338982 0 -0.01436581581)
(-0.05083161528 0 0.01697489585)
(0.1390770821 0 -0.006318252421)
(0.3959687694 0 0.1895921547)
(0.5291946878 0 0.3018610034)
(-0.4403895861 0 0.4793846104)
(-0.3458288715 0 0.5722737895)
(-0.2910245528 0 0.6396855043)
(-0.2833796472 0 0.705682611)
(-0.2158842358 0 0.5109518217)
(-0.2274013172 0 0.7580188861)
(-0.3770053492 0 -0.9282987577)
(-1.059292257 0 -1.533611643)
(-1.578577477 0 -1.890677626)
(-2.196820557 0 -2.285723135)
(-2.966434674 0 -2.875093749)
(-3.773720532 0 -3.649220111)
(-4.858987787 0 -4.384009558)
(-5.437886471 0 -4.874265265)
(-5.766161018 0 -5.148870205)
(-5.947163398 0 -5.299674121)
(-6.01405959 0 -5.35424077)
(-5.956020225 0 -5.297663484)
(-5.724859932 0 -5.093067708)
(-5.229855482 0 -4.70417081)
(-4.395500642 0 -4.122588147)
(-3.23360611 0 -3.340051097)
(-1.704144825 0 -2.18200822)
(-0.4407025478 0 -0.5615696638)
(-0.7362286397 0 0.02666145666)
(0.03084669692 0 -0.02868361591)
(0.105998214 0 -0.04424941351)
(0.1776856406 0 -0.01697187212)
(-0.04712549069 0 -0.8079094836)
(-0.5726025373 0 1.141367484)
(-0.251264748 0 0.8295955684)
(-0.1295229757 0 0.5990324974)
(-0.1541801855 0 0.6748605409)
(-0.01969234252 0 0.3525907453)
(0.2211645503 0 0.2836657553)
(0.1820829017 0 -0.4998861319)
(-0.2073331873 0 -0.8744292053)
(-0.8177309365 0 -1.366770858)
(-1.473939554 0 -1.773874349)
(-2.083513258 0 -2.173751626)
(-2.734107078 0 -2.639744613)
(-3.611869609 0 -3.332630753)
(-4.58634635 0 -4.146366806)
(-5.333121532 0 -4.779641185)
(-5.791360067 0 -5.165151952)
(-6.068241644 0 -5.393595262)
(-6.22593711 0 -5.520148208)
(-6.270281796 0 -5.54982274)
(-6.170437677 0 -5.459844451)
(-5.846753913 0 -5.204411698)
(-5.177831763 0 -4.726096722)
(-4.090703932 0 -4.004205036)
(-2.660158897 0 -3.095649484)
(-0.5359780269 0 -1.114194296)
(1.453198027 0 0.1329820038)
(0.09383982717 0 0.308727834)
(0.1230942906 0 0.2353976625)
(0.1389378222 0 0.180768636)
(0.1747101209 0 0.003496664276)
(0.4119358341 0 0.2350306153)
(0.3207134407 0 0.364167679)
(0.1653671296 0 0.4527782394)
(0.03139643524 0 0.5665809041)
(0.1390117082 0 0.3042428063)
(0.1085268885 0 0.2175620179)
(0.004826062999 0 -0.844959278)
(-0.187775013 0 -1.011765164)
(-0.7838177588 0 -1.338667908)
(-1.437720173 0 -1.699220477)
(-1.823788787 0 -1.958664241)
(-2.325901326 0 -2.31068786)
(-3.119717051 0 -2.919446999)
(-4.14288785 0 -3.763089691)
(-5.076966859 0 -4.556129661)
(-5.704601161 0 -5.088176844)
(-6.097406596 0 -5.413659407)
(-6.351814363 0 -5.619119363)
(-6.497980534 0 -5.732592623)
(-6.528518716 0 -5.74856015)
(-6.398582448 0 -5.635835545)
(-5.99495447 0 -5.323454618)
(-5.116918653 0 -4.703310726)
(-3.627404922 0 -3.741270555)
(-1.719429468 0 -2.599633735)
(3.149885257 0 0.05792458358)
(1.313604149 0 0.7745399412)
(0.4085270991 0 0.4155776403)
(0.2245299519 0 0.1692144191)
(0.2043470187 0 0.06669289642)
(0.390644103 0 0.2160855115)
(0.4054273749 0 0.3432874249)
(0.3065081467 0 0.43723283)
(0.1617114939 0 0.503249154)
(0.08367866011 0 0.4781873076)
(0.12335396 0 0.4205917121)
(0.04650466356 0 -1.145353031)
(-0.3622205556 0 -1.162413885)
(-0.9740174714 0 -1.344196062)
(-1.224774086 0 -1.515866284)
(-1.485776116 0 -1.692235006)
(-1.886889051 0 -1.960252976)
(-2.54964669 0 -2.44803991)
(-3.532566234 0 -3.24188205)
(-4.629624668 0 -4.17108153)
(-5.474499566 0 -4.892439229)
(-6.018726426 0 -5.34649793)
(-6.380573546 0 -5.642224894)
(-6.622487158 0 -5.837655276)
(-6.75971137 0 -5.943542421)
(-6.781979563 0 -5.950482533)
(-6.649020134 0 -5.827483334)
(-6.241666857 0 -5.490983959)
(-5.202941753 0 -4.72557713)
(-2.941183633 0 -3.248463359)
(-0.9461041435 0 -1.764687441)
(-0.1497855119 0 -0.3283496453)
(0.2205522602 0 0.2158592345)
(0.1696251356 0 0.1640290206)
(0.2384825207 0 0.1950337979)
(0.4053784136 0 0.2634315326)
(0.4275366682 0 0.364528598)
(0.332197045 0 0.4439329885)
(0.1920442162 0 0.507563704)
(0.12454653 0 0.5410214049)
(0.1048278782 0 0.5607959221)
(-0.009603822449 0 -1.035458532)
(-0.258345771 0 -0.8846493385)
(-0.6533032395 0 -1.093083949)
(-0.9052883373 0 -1.275459495)
(-1.147703715 0 -1.428827034)
(-1.460742208 0 -1.623662448)
(-1.962944806 0 -1.971957518)
(-2.801466812 0 -2.626456248)
(-3.963400623 0 -3.602670866)
(-5.052838179 0 -4.538446774)
(-5.807114155 0 -5.169466438)
(-6.305621023 0 -5.577401302)
(-6.651421087 0 -5.862472779)
(-6.885816512 0 -6.053770354)
(-7.013552478 0 -6.152088019)
(-7.023614432 0 -6.14803016)
(-6.885618898 0 -6.015989951)
(-6.536096099 0 -5.70150467)
(-5.856398359 0 -5.101725262)
(-4.646572172 0 -4.044290783)
(-2.70944602 0 -2.356432839)
(-0.3258786097 0 -0.2834007683)
(0.2087894931 0 0.2189281077)
(0.2578395178 0 0.2467850989)
(0.3523413309 0 0.2916715962)
(0.363169827 0 0.3648595831)
(0.2979978525 0 0.4310333807)
(0.2496071269 0 0.485386538)
(0.2215670481 0 0.5174354173)
(0.2267004565 0 0.5964027237)
(0.2127001944 0 -0.9712433375)
(0.1829819117 0 -0.9182919919)
(-0.1381849199 0 -0.9020823509)
(-0.508208513 0 -1.036300685)
(-0.7958704892 0 -1.174769201)
(-1.066696269 0 -1.32087403)
(-1.423822106 0 -1.5458293)
(-2.046794226 0 -2.004461171)
(-3.107362423 0 -2.878444724)
(-4.383618212 0 -3.981592045)
(-5.416013235 0 -4.84751566)
(-6.104269686 0 -5.404585647)
(-6.576176052 0 -5.796539414)
(-6.918779158 0 -6.083548036)
(-7.148368243 0 -6.271844178)
(-7.264827213 0 -6.360870658)
(-7.254537534 0 -6.339652928)
(-7.078332717 0 -6.175131177)
(-6.649251915 0 -5.792541536)
(-5.793407945 0 -5.04117914)
(-4.22227761 0 -3.670007025)
(-1.803331942 0 -1.555909907)
(0.2188246668 0 0.254584413)
(0.2848057642 0 0.3233070948)
(0.3307941097 0 0.3646212952)
(0.3525139227 0 0.3961306556)
(0.3601514932 0 0.4177196729)
(0.3633453062 0 0.4552615676)
(0.3666865687 0 0.5450358061)
(0.3526395208 0 0.574501469)
(0.3102091098 0 -0.8972878035)
(0.229305965 0 -0.8456474429)
(-0.02434515081 0 -0.8365407772)
(-0.4077523516 0 -0.9424436385)
(-0.705990134 0 -1.061564914)
(-0.9711389564 0 -1.201249958)
(-1.378559732 0 -1.472182529)
(-2.184787072 0 -2.107925829)
(-3.456973234 0 -3.212945019)
(-4.776638097 0 -4.331998)
(-5.73673964 0 -5.09187244)
(-6.369027944 0 -5.61516031)
(-6.843699352 0 -6.018917451)
(-7.189341951 0 -6.31036444)
(-7.413528594 0 -6.49436036)
(-7.517518151 0 -6.572690607)
(-7.484528762 0 -6.531830148)
(-7.262196286 0 -6.327442635)
(-6.725501376 0 -5.851788891)
(-5.602211934 0 -4.868619762)
(-3.396137687 0 -2.945108846)
(-0.1177070193 0 -0.08285904911)
(0.3266699161 0 0.3879405588)
(0.3495748533 0 0.4774282021)
(0.3426338207 0 0.552283263)
(0.3155849062 0 0.6230453784)
(0.2821430877 0 0.6760990121)
(0.2750433621 0 0.6782813132)
(0.3123912094 0 0.6318272121)
(0.3783988353 0 -0.812157253)
(0.3418632021 0 -0.7835772831)
(0.2426010026 0 -0.7454066087)
(-0.007446736682 0 -0.7567645052)
(-0.3593381119 0 -0.8440024794)
(-0.5986135658 0 -0.9351867644)
(-0.8573688973 0 -1.079069785)
(-1.368744009 0 -1.445321424)
(-2.401270991 0 -2.333595681)
(-3.832728841 0 -3.586533522)
(-5.146943258 0 -4.597341235)
(-5.983252467 0 -5.277211497)
(-6.626747586 0 -5.829478195)
(-7.118336069 0 -6.251005442)
(-7.465645438 0 -6.544390229)
(-7.682750659 0 -6.722242869)
(-7.772681251 0 -6.788082828)
(-7.714158505 0 -6.724749819)
(-7.43373882 0 -6.469854476)
(-6.74117877 0 -5.859122693)
(-5.196020213 0 -4.509633236)
(-2.234236504 0 -1.897293528)
(0.3494980404 0 0.3906738608)
(0.395520403 0 0.4863790968)
(0.387452057 0 0.5661393328)
(0.3598193113 0 0.6469044809)
(0.3342913693 0 0.7196037276)
(0.3125866395 0 0.7590535053)
(0.2976954952 0 0.8089585574)
(0.4140836139 0 -0.7452706683)
(0.4028721646 0 -0.7292419845)
(0.3589927439 0 -0.695047594)
(0.2379526639 0 -0.6590420984)
(-0.01355766865 0 -0.6692589176)
(-0.2752439819 0 -0.731342528)
(-0.4753344332 0 -0.808871519)
(-0.7728151481 0 -0.9863662065)
(-1.458581579 0 -1.542824178)
(-2.681678096 0 -2.682179991)
(-4.276777142 0 -3.886152614)
(-5.350206384 0 -4.722816388)
(-6.207318278 0 -5.461194128)
(-6.895831157 0 -6.05818179)
(-7.402076683 0 -6.493219361)
(-7.748834795 0 -6.786205181)
(-7.956268053 0 -6.955168374)
(-8.030569624 0 -7.006635734)
(-7.942819701 0 -6.917183666)
(-7.582364765 0 -6.592440591)
(-6.624223016 0 -5.751389189)
(-4.222601058 0 -3.659639328)
(0.05283883664 0 0.2460152518)
(0.03360079925 0 0.3539402878)
(-0.05648525621 0 0.3820498074)
(-0.1229621913 0 0.3628613698)
(-0.08718014758 0 0.3917044647)
(0.02778039956 0 0.5407912945)
(0.4431263052 0 -0.6768749825)
(0.4282068238 0 -0.6451901187)
(0.3361078611 0 -0.6157629754)
(0.1324123688 0 -0.6217627818)
(-0.08600319211 0 -0.6152151187)
(-0.2472263349 0 -0.6361110448)
(-0.4184312944 0 -0.7148969478)
(-0.7955879669 0 -0.9846501506)
(-1.649541952 0 -1.838960501)
(-3.134504778 0 -2.989717638)
(-4.392957234 0 -3.885851131)
(-5.486897875 0 -4.826263303)
(-6.445822098 0 -5.664174997)
(-7.1761198 0 -6.298784705)
(-7.696594324 0 -6.74663021)
(-8.03841577 0 -7.034901547)
(-8.232927377 0 -7.191523697)
(-8.290406109 0 -7.226923094)
(-8.168062739 0 -7.106141047)
(-7.682688892 0 -6.672283459)
(-6.165557485 0 -5.346657667)
(-1.696337407 0 -1.463530879)
(-0.1964374069 0 0.1937258961)
(-0.1288262559 0 0.2194758174)
(-0.07092501557 0 0.26188306)
(0.008529581654 0 0.3016075617)
(0.09244836656 0 0.3444705664)
(0.4688115266 0 -0.6299046166)
(0.4282188919 0 -0.6304223379)
(0.2975548738 0 -0.656527986)
(0.05505540323 0 -0.6830584944)
(0.0005180278827 0 -0.603891362)
(-0.1430460983 0 -0.5714171153)
(-0.2491333638 0 -0.5663530846)
(-0.4199326972 0 -0.6658004159)
(-0.9158173314 0 -1.176060542)
(-1.92827371 0 -2.071371269)
(-3.102404057 0 -2.761138557)
(-4.337580417 0 -3.809176417)
(-5.634998453 0 -4.950359429)
(-6.688321326 0 -5.872462511)
(-7.470853088 0 -6.553810138)
(-8.001788269 0 -7.010788643)
(-8.33161361 0 -7.287574429)
(-8.509864227 0 -7.428146866)
(-8.550050743 0 -7.446163904)
(-8.383397717 0 -7.284883521)
(-7.653926849 0 -6.638154967)
(-4.313818891 0 -3.733783008)
(-0.1047230531 0 0.247036043)
(-0.05589972666 0 0.2374079617)
(-0.009217275288 0 0.2492505986)
(0.05064426459 0 0.2832677766)
(0.4511934609 0 -0.6317325634)
(0.3735432622 0 -1.031149804)
(0.6143426356 0 -1.823391867)
(0.1700675158 0 0.9491168953)
(-0.07021177097 0 -0.4523965549)
(-0.1421185331 0 -0.4611764023)
(-0.2290982984 0 -0.501760776)
(-0.4071490536 0 -0.6713806051)
(-0.911372587 0 -1.182595844)
(-1.721390799 0 -1.557410692)
(-2.730525281 0 -2.377302337)
(-4.277753622 0 -3.750002301)
(-5.742400088 0 -5.039250762)
(-6.936232844 0 -6.087106662)
(-7.782813642 0 -6.82551848)
(-8.314201051 0 -7.282386023)
(-8.623001819 0 -7.539076267)
(-8.782414238 0 -7.660194993)
(-8.805874441 0 -7.659880981)
(-8.571559936 0 -7.436670527)
(-7.068301841 0 -6.117405528)
(0.1068595767 0 0.2764356864)
(0.07444394801 0 0.2425361145)
(0.06857349294 0 0.2547373114)
(0.07731080186 0 0.2798099085)
(0.4551276609 0 -0.5932426518)
(0.3452470545 0 -0.5633118965)
(0.453732689 0 -0.6470957964)
(-0.07214537669 0 -0.3648588261)
(-0.1373561949 0 -0.4496644197)
(-0.143655424 0 -0.4630441971)
(-0.1801628504 0 -0.530445728)
(-0.1894861547 0 -0.667670948)
(-0.2451273939 0 -0.6603938393)
(-0.5743109741 0 -0.5425812937)
(-1.121992511 0 -0.9517209689)
(-2.361286704 0 -2.0431279)
(-4.031385556 0 -3.521479858)
(-5.775046246 0 -5.06252005)
(-7.193618034 0 -6.31178948)
(-8.111079404 0 -7.1130892)
(-8.626172485 0 -7.554693109)
(-8.904700963 0 -7.782264485)
(-9.043781262 0 -7.880515742)
(-9.052256061 0 -7.860479527)
(-8.653529239 0 -7.488734717)
(0.1045179759 0 0.147899794)
(0.1008265817 0 0.2018118729)
(0.1019653911 0 0.2414228797)
(0.264002001 0 -0.4904687779)
(0.004069804946 0 -0.4421887888)
(-0.1008183621 0 -0.4482045479)
(-0.1224317548 0 -0.399974246)
(-0.1447656176 0 -0.3703229512)
(-0.08371408978 0 -0.4915820486)
(0.04309314376 0 -0.6902083839)
(0.2060076009 0 -0.753942314)
(0.01212704216 0 -0.5479383216)
(-0.3818682819 0 -0.4423936363)
(-0.7920313408 0 -0.6299533146)
(-1.673859694 0 -1.405294309)
(-3.432522806 0 -2.972443083)
(-5.672210006 0 -4.965949454)
(-7.461296107 0 -6.547889394)
(-8.447895058 0 -7.410111389)
(-8.926031927 0 -7.818116315)
(-9.165967259 0 -8.007592405)
(-9.284198872 0 -8.077294244)
(-9.280359018 0 -8.031635945)
(-0.1928540088 0 -0.7830089279)
(0.1012716605 0 0.1697710791)
(0.04469745315 0 -0.4356340006)
(0.001949110315 0 -0.4254690131)
(-0.04957487626 0 -0.4057153414)
(-0.09577157571 0 -0.3691961142)
(-0.110388408 0 -0.3375501306)
(0.1527969214 0 -0.5376706203)
(0.3889680379 0 -0.6572545851)
(0.4467406829 0 -0.5503774968)
(0.005973095361 0 -0.3550706049)
(-0.4517021561 0 -0.3347724292)
(-0.5964989566 0 -0.4232521754)
(-0.9311646303 0 -0.6980423613)
(-2.268963123 0 -1.901235529)
(-5.267028125 0 -4.602527053)
(-7.724049097 0 -6.783505048)
(-8.771107395 0 -7.698810596)
(-9.200145072 0 -8.063161474)
(-9.389687109 0 -8.199527473)
(-9.494082997 0 -8.224091659)
(-0.4319344747 0 -2.753186922)
(-0.02733682501 0 -0.3816813974)
(-0.04842297075 0 -0.3644869358)
(-0.06457248779 0 -0.3155770424)
(0.005268131728 0 -0.3173491733)
(0.3975332737 0 -0.5433457567)
(0.5120276369 0 -0.5052060982)
(0.2869716683 0 -0.3369321215)
(-0.3762149819 0 -0.2801162525)
(-0.519754028 0 -0.3723623294)
(-0.631375411 0 -0.435564706)
(-0.7107890832 0 -0.4600125864)
(-0.9173797872 0 -0.6423259524)
(-3.750790159 0 -3.246402787)
(-7.782461873 0 -6.847490128)
(-9.056726701 0 -7.966802082)
(-9.41809944 0 -8.279512166)
(-9.53762711 0 -8.323492007)
(0.05200260099 0 -0.3356869511)
(0.02465144689 0 -0.308345825)
(-0.04610628927 0 -0.2496308014)
(-0.05515488344 0 -0.2260744687)
(0.1860720252 0 -0.3365334348)
(-0.1233863328 0 -0.2047876733)
(-0.2496854707 0 -0.2026937026)
(-0.4392439271 0 -0.3119810564)
(-0.6074223569 0 -0.4249329544)
(-0.7043421256 0 -0.4758489922)
(-0.7405162445 0 -0.4793731756)
(-0.7640586969 0 -0.4687957199)
(-0.1980637509 0 -0.1832653909)
(0.06044114686 0 0.04472334617)
(-0.0602082231 0 -0.2114038911)
(-0.05871450619 0 -0.2037761632)
(-0.07224509911 0 -0.2323562342)
(-0.1109787027 0 -0.2724383374)
(-0.2477651228 0 -0.2443024706)
(-0.5041693542 0 -0.3603436239)
(-0.6917099623 0 -0.4827339315)
(-0.7569507949 0 -0.486217321)
(-0.7969258894 0 -0.5161441727)
(-0.1326892526 0 -0.1520070575)
(-0.1430841777 0 -0.1480490529)
(-0.1634694695 0 -0.1390717684)
(-0.2118152844 0 -0.1467850896)
(-0.2265524274 0 -0.280898627)
(-0.2241955058 0 -0.2546671842)
(-0.197132543 0 -0.2271312152)
(-0.1606260993 0 -0.1518545987)
(-0.1714740329 0 -0.1314287323)
(-0.179674058 0 -0.1583101393)
(-0.2073566912 0 -0.1702150769)
(-0.2258288724 0 -0.1382391006)
(-0.2541061158 0 -0.1820309413)
(-0.3314930471 0 -0.1296738269)
(-0.3783967371 0 -0.08828202694)
(-0.1444861991 0 0.09439362124)
(-0.4703727972 0 -0.09641222767)
(-0.7217359772 0 -0.1902026735)
(-0.2498660167 0 -0.1240184524)
(-0.05852560931 0 -0.08672574102)
(0.3703514324 0 -0.2398208908)
(-0.6691792839 0 -0.3071519887)
(-0.2947667984 0 -0.7867733032)
(-0.1171427873 0 -0.2080005854)
(-0.1195129452 0 -0.199982451)
(-0.1210132649 0 -0.1951102131)
(-0.1284886952 0 -0.1936643807)
(-0.1239208083 0 -0.1731731514)
(-0.1331367413 0 -0.1904846004)
(-0.137392216 0 -0.1887614187)
(-0.1312891162 0 -0.1647248114)
(1.19452725 0 -0.8358438078)
(1.239796412 0 -0.8415343941)
(1.237970796 0 -0.8528852897)
(1.259107807 0 -0.8415200218)
(1.285030507 0 -0.8483885293)
(1.28659605 0 -0.8728644819)
(0.1464768987 0 0.451391494)
(-0.2530935154 0 -0.1544061401)
(-0.1182054688 0 -0.2508914416)
(-0.1193392121 0 -0.2484449488)
(-0.1248999053 0 -0.2503960774)
(-0.1194387668 0 -0.2303684423)
(-0.4224294298 0 -0.1571663997)
(-0.4995288453 0 -0.1409603349)
(-0.4810683717 0 -0.1269860946)
(-0.502541125 0 0.2715532327)
(-0.1008699369 0 -0.2580505657)
(-0.1036309926 0 -0.2588056308)
(-0.1114339708 0 -0.2600377176)
(-0.1215931219 0 -0.2726746962)
(-0.1677806776 0 -0.3134605207)
(-0.1161476237 0 -0.2588941492)
(-0.5989994003 0 0.2503140991)
(-0.8154498961 0 0.5667068043)
(-0.7548768832 0 0.6064657212)
(-0.7224283525 0 0.6947075611)
(-0.7245289534 0 0.7164669742)
(-0.0780894651 0 -0.2310105628)
(-0.1556761131 0 -0.3076152838)
(-0.08792410093 0 -0.2493242936)
(-0.5746483396 0 0.6444023397)
(-0.3415922988 0 -0.2169725914)
(-0.08425126587 0 -0.1940168829)
(-0.4955630999 0 -0.6018908741)
(-0.06774683504 0 -0.2029155148)
(0.6189656581 0 -0.6204402972)
(0.4905125856 0 0.334316538)
(-0.6644188509 0 -0.8061567916)
(-1.307279257 0 -1.42601595)
(-1.680152719 0 -1.767318086)
(-1.367898929 0 -1.451729164)
(0.09870308176 0 -0.3502444526)
(-0.2162765794 0 -0.2424763787)
(0.2231014827 0 0.391537314)
(-0.2280517787 0 -0.2486217196)
(-1.0790915 0 -1.276708946)
(-1.507041915 0 -1.67771097)
(-1.238110957 0 -1.401881565)
(-0.184600454 0 -0.2291608744)
(-0.1461082345 0 -0.1836390816)
(-0.1674701092 0 -0.2078467431)
(-1.015413047 0 -1.224141545)
(-0.7625011788 0 -0.9628612827)
(-0.3567223247 0 0.02082395991)
(-0.7432091504 0 -0.9882598805)
(-1.207135357 0 -1.491165515)
(-1.121218485 0 -1.362356042)
(-0.4347836186 0 0.3703756177)
(-0.5003161678 0 0.4188674847)
(-0.4467135427 0 0.2552011119)
(-0.2039179939 0 -0.5526119333)
(-0.655851902 0 -1.022517961)
(-1.110836904 0 -1.486665961)
(-1.180091529 0 -1.509183411)
(-0.3108516564 0 0.5285541457)
(-0.3842840032 0 0.6190231376)
(-0.4676350046 0 0.5740216243)
(-0.3804705088 0 0.6944226216)
(-0.02873154606 0 -0.5392717587)
(-0.1098143543 0 -0.5466349213)
(0.2395400287 0 0.5015215194)
(0.1939073456 0 -0.4560916522)
(0.09609379755 0 -0.532866765)
(0.03508658762 0 -0.5394359563)
(0.1737407144 0 0.2014187536)
(0.1791610223 0 0.132672475)
(0.1175156901 0 -0.6683832393)
(0.03421097989 0 -0.7599803484)
(0.04762942538 0 -0.6281595141)
(0.129666525 0 0.3424833749)
(0.1098575941 0 0.3485398414)
(0.06450947167 0 0.2045838844)
(0.08302676296 0 -1.074354921)
(0.05412308255 0 -1.073776198)
(-0.05109640505 0 -0.9043758906)
(0.07057587148 0 0.4981531826)
(0.06338915089 0 0.5272524465)
(0.112744956 0 0.4352200508)
(-0.0199765939 0 -1.151117652)
(-0.1818324518 0 -1.06588604)
(-0.05774365394 0 -1.12953204)
(0.1674357999 0 0.5794806082)
(0.1698037783 0 0.625788414)
(0.1026333072 0 0.5968740815)
(0.1057300674 0 -0.989835714)
(0.09892649578 0 -0.9112331868)
(-0.08234977144 0 -0.9144342675)
(0.2898381749 0 0.6017759254)
(0.2828829568 0 0.6221541461)
(0.2287698286 0 0.6361340915)
(0.2840165834 0 -0.9467540992)
(0.2128599764 0 -0.9563834166)
(0.3755102452 0 0.5858716157)
(0.3430544375 0 0.5855593012)
(0.356834579 0 -0.8681841426)
(0.3287890716 0 -0.9122169004)
(0.295672535 0 0.7105729388)
(0.3811235352 0 -0.825173586)
(0.3986169286 0 -0.7749721364)
(0.3899690071 0 -0.7693431242)
(0.3627282829 0 -0.8029425562)
(0.1903813837 0 0.7555037116)
(0.1580522725 0 0.7752587352)
(0.3227662678 0 0.8133437487)
(0.4259902516 0 -0.7201067626)
(0.4271045333 0 -0.7115077978)
(0.4111686628 0 -0.7398907669)
(0.02848096439 0 0.4006651048)
(0.03374079882 0 0.4411708355)
(0.02076174058 0 0.5651752371)
(0.4538504568 0 -0.656969977)
(0.4392395833 0 -0.6841386429)
(0.1000380828 0 0.3236779436)
(0.4799284569 0 -0.6191413858)
(0.471415613 0 -0.6186514846)
(0.4600095901 0 -0.6265796144)
(0.0703079364 0 0.2805735444)
(0.0865488406 0 0.2908820948)
(0.08596818246 0 0.300090982)
(0.4776584779 0 -0.6182237518)
(0.458189611 0 -0.6080169146)
(0.405365055 0 -0.6199703569)
(0.3912232204 0 -0.7198178918)
(0.08721009797 0 0.248735438)
(0.09048870025 0 0.2687848732)
(0.07188804361 0 0.2699524844)
(0.4014569784 0 -0.5560077943)
(0.4223702468 0 -0.5838947635)
(0.1169833085 0 0.2282879965)
(0.1035443511 0 0.2549701829)
(0.07549097862 0 -0.4537289295)
(0.1517768232 0 -0.4630952861)
(0.06007675519 0 0.1087454173)
(0.1132834595 0 0.1928075966)
(0.02109128384 0 -0.4235113566)
(0.02787674076 0 -0.4345321013)
(0.005166655803 0 -0.4180448345)
(-0.01428063037 0 -0.4101577541)
(-0.02286933389 0 -0.4175219434)
(-9.539357205 0 -8.272515389)
(0.09856629181 0 -1.604918604)
(0.1758222725 0 -2.474811578)
(0.1817588918 0 -1.679997095)
(0.1861480398 0 0.03252664385)
(-0.01440092054 0 -0.3876366913)
(0.009997345233 0 -0.3586990416)
(0.008741518813 0 -0.346371179)
(-0.04037282928 0 -0.3783914591)
(0.7084858116 0 0.1785056905)
(4.596442576 0 -3.129267443)
(-9.484621982 0 -8.329844633)
(0.03331455389 0 -0.3319224798)
(0.01846777758 0 -0.2918321057)
(-0.01359463358 0 -0.2778394015)
(-0.02746837199 0 -0.2704682904)
(-0.03100438357 0 -0.2478225703)
(-0.04854716602 0 -0.2275068602)
(-0.06423580594 0 -0.2269994996)
(-0.7903580105 0 -0.4945576583)
(-0.4176214655 0 -0.0001553905033)
(-0.3165871485 0 -0.08655646487)
(-0.2097089682 0 -0.2327792949)
(0.08090673748 0 -0.3892747033)
(-0.05403814962 0 -0.1667109552)
(0.01678091814 0 0.1071652332)
(-0.05250585547 0 -0.2182594346)
(-0.05967489149 0 -0.203702911)
(-0.05317808666 0 -0.2171305049)
(-0.05957523576 0 -0.211653657)
(-0.05627224709 0 -0.2346734559)
(-0.0590181644 0 -0.2620289142)
(-0.08746014883 0 -0.2558308947)
(-0.06084268419 0 -0.2958526784)
(-0.0598545759 0 -0.3299572515)
(-0.1575113825 0 -0.2705007903)
(-0.05424760665 0 -0.360461435)
(-0.04086047167 0 -0.3801281864)
(-0.3631621561 0 -0.2674731611)
(-0.01420083903 0 -0.3853386018)
(0.05835691627 0 -0.3904500932)
(-0.6212261356 0 -0.4384897674)
(0.06391786747 0 -0.5466792868)
(-0.7421623547 0 -0.4871039948)
(-0.7753113241 0 -0.5244003748)
(-0.1411370281 0 -0.1907067762)
(-0.1465405686 0 -0.2010910716)
(-0.1604105813 0 -0.17675284)
(-0.1592805446 0 -0.2371604017)
(0.06474555773 0 -0.6559489573)
(-0.2136943364 0 -0.3315764748)
(0.6783424231 0 -0.6119093022)
(0.4663064524 0 -0.3252351474)
(-0.1398717489 0 -0.1651181986)
(0.3626664399 0 -0.250634373)
(0.3072502515 0 -0.2105770198)
(0.5465781169 0 -0.376699577)
(0.245013703 0 -0.1682660373)
(0.2372686865 0 -0.1646046822)
(0.4035194592 0 -0.2764938711)
(0.3366990337 0 -0.2360688624)
(0.51327729 0 -0.3619106255)
(0.3117380028 0 -0.2186341661)