/*--------------------------------*- C++ -*----------------------------------*\
| =========                 |                                                 |
| \\      /  F ield         | OpenFOAM: The Open Source CFD Toolbox           |
|  \\    /   O peration     | Version:  2.1.x                                 |
|   \\  /    A nd           | Web:      www.OpenFOAM.org                      |
|    \\/     M anipulation  |                                                 |
\*---------------------------------------------------------------------------*/
FoamFile
{
    version     2.0;
    format      ascii;
    class       volScalarField;
    location    "1.1";
    object      deltaf;
}
// * * * * * * * * * * * * * * * * * * * * * * * * * * * * * * * * * * * * * //

dimensions      [0 1 0 0 0 0 0];

internalField   nonuniform List<scalar> 
2828
(
4.361492999e-06
1.184071789e-05
3.543962894e-05
1.749526848e-06
2.376923437e-06
2.076087246e-05
1.625591281e-05
2.303026372e-05
1.345776791e-05
7.413312405e-06
2.286315275e-05
3.907018777e-05
1.049859493e-06
1.800905563e-06
1.97903084e-06
5.182596085e-06
4.799410529e-06
1.920145898e-05
1.960845309e-05
2.23795282e-05
1.552387528e-05
1.251887344e-05
1.004712979e-05
1.015029486e-05
2.178732746e-05
2.386932076e-05
5.444340536e-06
1.71259556e-06
1.871453625e-06
6.814740667e-06
8.723885074e-06
4.043201574e-06
3.537439683e-06
3.101743093e-05
2.150969342e-05
2.199897587e-05
2.632748883e-05
1.651119513e-05
1.038336939e-05
8.861693725e-06
1.095431824e-05
1.573621858e-05
1.072688155e-05
1.056794888e-05
2.513144028e-06
1.791140329e-06
7.982705402e-06
1.79017564e-05
1.309025722e-05
4.384528078e-06
4.342310301e-06
4.919514026e-06
5.895581033e-05
5.295625598e-05
4.827252415e-05
4.344535561e-05
3.843882984e-05
2.485208667e-05
1.482512987e-05
1.114098053e-05
1.218264483e-05
1.08653689e-05
3.334114611e-06
3.161281543e-06
4.131516914e-06
1.477739213e-06
5.172481212e-06
1.197569945e-05
2.1901104e-05
9.447355731e-06
4.449376598e-06
4.60171442e-06
5.887752484e-06
7.852575179e-05
8.952155622e-05
9.693089441e-05
8.992775685e-05
7.370338531e-05
5.739553958e-05
4.088710294e-05
2.659166212e-05
1.755595074e-05
1.516268875e-05
1.247993298e-05
2.508099594e-06
6.467896711e-07
2.951652092e-06
9.310060522e-07
2.096756691e-06
5.134361857e-06
1.447730923e-05
1.801412761e-05
7.25491787e-06
5.112805877e-06
7.090659129e-06
1.315480688e-05
7.930859078e-05
9.675304e-05
0.0001206338447
0.0001266926149
0.0001090028645
8.589739897e-05
6.882500146e-05
5.466473677e-05
3.966452181e-05
2.60697901e-05
1.794930493e-05
1.3977985e-05
6.025079487e-06
1.204465694e-06
2.007873357e-06
4.510339048e-07
7.952502852e-07
2.390541721e-06
7.260646365e-06
1.838242786e-05
1.793883141e-05
1.128721313e-05
1.153840378e-05
1.197933401e-05
7.303064808e-05
8.482958288e-05
0.0001115650761
0.0001354994995
0.0001294707556
0.0001026690987
7.948777446e-05
6.584231345e-05
5.561505383e-05
4.505311691e-05
3.435228915e-05
2.317165984e-05
1.351019962e-05
8.879228598e-06
1.821851155e-05
1.326936033e-06
1.642340233e-07
4.390447242e-07
1.351454261e-06
3.666786438e-06
1.093512731e-05
2.255619532e-05
2.816789742e-05
2.284875353e-05
1.36215902e-05
7.857665071e-06
7.235369555e-05
9.262675861e-05
0.0001228282686
0.0001374701166
0.000118803548
8.88547022e-05
6.785687742e-05
5.500149419e-05
4.746495869e-05
4.585708319e-05
4.551572861e-05
3.497071709e-05
2.161811086e-05
5.448765635e-05
4.455077792e-05
1.124457756e-06
1.266055524e-07
3.619147103e-07
9.832468493e-07
2.174817589e-06
5.32195182e-06
1.27547477e-05
2.43073395e-05
2.910389945e-05
1.998049607e-05
8.161024403e-06
4.564722395e-06
5.841940386e-05
7.745717133e-05
0.0001028183235
0.0001268914524
0.0001246976564
9.611927886e-05
7.024925119e-05
5.652863413e-05
4.749886036e-05
4.609748365e-05
5.615577068e-05
6.117813183e-05
4.756891013e-05
4.917257092e-05
6.082092485e-05
2.627999835e-05
5.581053102e-06
1.327161243e-07
3.403543429e-07
8.443976932e-07
1.633972157e-06
3.10295285e-06
6.049479753e-06
1.214549252e-05
1.94666862e-05
1.752787528e-05
7.379641811e-06
3.428227043e-06
5.431652292e-05
8.580683742e-05
0.000106431983
0.0001123431871
9.372190352e-05
6.433752832e-05
4.918855944e-05
4.878397541e-05
5.221321634e-05
6.178579564e-05
6.947166367e-05
5.739912246e-05
4.297785952e-05
3.081686727e-05
1.420613152e-05
9.801089359e-06
1.453193102e-06
1.662746565e-07
3.391392819e-07
7.640700146e-07
1.417611031e-06
2.249496416e-06
3.627111875e-06
6.386941151e-06
1.012758719e-05
8.705973348e-06
3.65426476e-06
1.840474373e-06
5.968651272e-05
8.963458352e-05
9.020346532e-05
7.934158894e-05
5.974984545e-05
4.046283821e-05
3.617900391e-05
4.761849122e-05
6.796431406e-05
8.255496614e-05
6.913768198e-05
4.258392368e-05
4.2227814e-05
7.117484531e-05
4.389252657e-05
1.725615572e-05
5.955840399e-06
2.672959214e-07
3.58407998e-07
7.045016421e-07
1.249889458e-06
1.768562423e-06
2.520439374e-06
3.862628897e-06
4.311620414e-06
2.1939568e-06
9.398391486e-07
5.890522338e-07
8.284181503e-07
6.302811201e-05
7.820322289e-05
5.969306858e-05
4.59517696e-05
3.785525098e-05
3.512372442e-05
4.370220298e-05
5.019758524e-05
8.053558082e-05
9.530774605e-05
7.452642789e-05
5.254150689e-05
6.931996216e-05
0.0001035470407
6.093344786e-05
4.542728976e-05
1.603115175e-05
7.669663136e-07
4.448570296e-07
6.601973342e-07
1.036541495e-06
1.339434019e-06
1.847078464e-06
1.94215838e-06
8.497991822e-07
3.265899044e-07
1.715455542e-07
1.30753309e-07
4.160188603e-07
2.914812961e-05
6.327687123e-05
5.537626493e-05
3.422138963e-05
2.502147283e-05
3.044317767e-05
5.839955101e-05
6.183192696e-05
4.424701182e-05
8.156499757e-05
0.0001005993141
9.483584631e-05
9.019861171e-05
9.81629373e-05
8.271894328e-05
4.994149948e-05
5.080219097e-05
2.172866553e-05
4.495077312e-06
7.562502584e-07
6.30730719e-07
7.330045504e-07
9.702246262e-07
1.353875687e-06
3.817080482e-07
1.547501487e-07
6.982060632e-08
5.4195558e-08
7.375321847e-08
3.122515663e-07
3.008096876e-05
4.974719034e-05
3.434228908e-05
2.122784193e-05
2.214266743e-05
5.789750263e-05
5.740716859e-05
2.850108461e-05
3.689450359e-05
7.529477625e-05
9.241671475e-05
9.173555107e-05
9.493342864e-05
0.0001004027507
9.126307968e-05
6.093305822e-05
3.597157718e-05
3.844958397e-05
5.01167703e-05
5.639195931e-07
6.04699602e-07
3.338355407e-07
6.575687298e-07
6.547262494e-07
7.224396514e-07
2.56606699e-07
1.118130922e-07
8.971642768e-08
7.126185145e-08
6.269223284e-08
2.812790141e-05
3.280692705e-05
2.149091229e-05
1.538698558e-05
1.314953416e-05
1.2515105e-05
2.033518328e-05
3.605374545e-05
2.856411865e-05
6.243773335e-05
7.55202386e-05
7.306671203e-05
7.742486916e-05
0.0001034799433
0.0001050724107
6.630226601e-05
6.036304964e-05
6.492368584e-05
6.339819804e-05
5.572835411e-06
8.300565588e-07
3.650196715e-07
2.721508509e-07
5.233422613e-07
8.643361085e-07
8.006890346e-07
6.239041189e-07
5.555531378e-07
4.697306479e-07
3.608643035e-07
2.129131906e-05
1.985420286e-05
1.48184665e-05
1.299960558e-05
1.337062092e-05
1.414344511e-05
1.440230126e-05
1.913403841e-05
2.454575132e-05
4.484086713e-05
5.924658773e-05
6.316853092e-05
6.927535732e-05
8.740809594e-05
7.814978842e-05
6.071744753e-05
8.422979262e-05
4.295293161e-05
2.006328107e-05
3.578034741e-05
2.406436743e-07
2.722649946e-07
1.031909482e-06
7.991068634e-07
7.924113246e-07
9.359535793e-07
7.108364308e-07
7.422836812e-07
7.896905856e-07
1.096836334e-06
1.308956627e-05
1.409334804e-05
1.300246821e-05
1.342042793e-05
1.423327266e-05
1.29021985e-05
1.047310517e-05
9.40845644e-06
1.301880826e-05
2.601916813e-05
4.229178623e-05
5.288625047e-05
5.801506742e-05
6.172686433e-05
7.528615247e-05
8.635227471e-05
6.399523143e-05
3.583112929e-05
1.621361762e-05
3.028848255e-05
1.716583136e-05
1.680586523e-06
3.175480991e-07
1.180102257e-06
1.893743264e-06
2.595666411e-06
4.84236721e-06
4.034308802e-06
3.471477095e-06
3.50563769e-06
1.979778542e-05
2.19660778e-05
1.702064273e-05
1.083194213e-05
6.578206622e-06
4.488041219e-06
4.028047073e-06
5.321316297e-06
1.124780404e-05
2.543931284e-05
3.905495615e-05
4.642358949e-05
5.198288064e-05
6.164146945e-05
7.169019039e-05
7.318335565e-05
6.262554496e-05
4.299670255e-05
2.653204237e-05
1.387933456e-05
3.043145435e-06
2.160130267e-07
6.45098647e-08
3.949868311e-08
1.546585207e-08
6.297398192e-08
1.520846059e-06
1.308635232e-06
1.223296174e-06
4.344090476e-05
2.309326327e-05
1.022963297e-05
4.673341416e-06
2.52083296e-06
1.790247481e-06
1.699672357e-06
2.099977999e-06
3.88029354e-06
1.245408451e-05
2.492398516e-05
3.300930458e-05
4.101364251e-05
5.405113306e-05
6.845286537e-05
7.663355837e-05
7.471129932e-05
6.092398141e-05
3.918537607e-05
2.004642861e-05
6.785841095e-06
8.394892143e-07
3.030814374e-08
1.770646385e-08
9.338534717e-09
9.97687035e-09
1.018773958e-07
3.370047733e-07
5.454126465e-07
2.881747262e-05
1.204251872e-05
4.883156299e-06
2.401684818e-06
1.594157285e-06
1.257168939e-06
1.000909598e-06
8.842631604e-07
1.25776149e-06
4.543375599e-06
1.424526833e-05
2.126286728e-05
2.901123016e-05
4.20485575e-05
5.836840316e-05
7.12630996e-05
7.577843501e-05
6.939301663e-05
5.281639345e-05
3.134612958e-05
1.293476441e-05
2.575002138e-06
5.268820955e-08
3.305314692e-08
2.460585239e-08
2.439425279e-08
4.338001655e-08
1.658907994e-07
1.612687281e-06
2.88056928e-07
3.385178692e-07
6.419485508e-07
2.344150669e-06
6.461699447e-06
3.011670913e-06
1.009734049e-06
1.981874936e-06
7.270464578e-06
1.208729835e-05
1.793893295e-05
2.836106156e-05
4.349999353e-05
5.920430128e-05
7.093779684e-05
7.415041681e-05
6.52977215e-05
4.545313073e-05
2.242468059e-05
6.236215148e-06
1.29101616e-07
2.547832669e-10
2.101979179e-08
7.457710888e-08
2.493456153e-07
8.705765665e-07
1.649597492e-08
1.81025443e-08
1.94271764e-08
3.682975072e-08
1.271973941e-07
6.462534853e-07
7.551486948e-07
1.073863231e-06
1.471095946e-06
3.16392204e-06
5.998812817e-06
9.733351082e-06
1.671200199e-05
2.76151838e-05
4.234595609e-05
5.795739535e-05
7.019576631e-05
7.279356743e-05
6.069074822e-05
3.644509022e-05
1.267839638e-05
9.704320032e-07
2.027307651e-11
2.842414521e-09
4.083787952e-08
4.854595416e-07
5.374061103e-08
5.402115409e-08
8.348318523e-08
2.411188098e-07
3.754364183e-07
2.799963333e-07
4.016092096e-07
5.769224434e-07
1.03353064e-06
2.549200948e-06
5.411100754e-06
1.076237024e-05
1.452748772e-05
2.501219119e-05
3.968813008e-05
5.659268164e-05
7.050747911e-05
7.235224755e-05
5.487216079e-05
2.460934496e-05
3.344518511e-06
1.238121698e-11
2.058800635e-09
0.0001052689
5.465015454e-05
9.515030902e-08
1.085158711e-07
1.316093486e-07
1.960590004e-07
3.484959669e-07
1.69978901e-07
1.376744659e-07
2.53487482e-07
7.340936243e-07
2.013653716e-06
4.135469638e-06
1.007088516e-05
6.782998482e-06
1.137926378e-05
2.131638617e-05
3.644230128e-05
5.577442005e-05
7.276649075e-05
7.324189264e-05
4.559315762e-05
8.546005629e-06
1.059525876e-11
3.483792207e-09
6.115696633e-05
3.157231817e-07
3.947846985e-07
4.752167346e-07
3.811521702e-07
1.483636721e-07
8.352911993e-08
1.731807218e-07
2.073414822e-06
8.047758235e-06
9.78351354e-06
9.312736166e-06
5.546854865e-05
3.605283885e-06
7.919169486e-06
1.675109495e-05
3.236435889e-05
5.56908295e-05
7.926216215e-05
7.641249723e-05
2.44870916e-05
1.539040949e-10
4.440055239e-08
2.836444526e-07
3.961646469e-08
2.144870348e-08
6.671564787e-09
6.820200022e-09
1.354987048e-08
1.703842519e-07
4.563530008e-06
2.512179904e-05
3.099738601e-05
2.671023044e-07
7.492328014e-07
1.41568497e-06
4.145164422e-06
1.108673771e-05
2.608495253e-05
5.674553682e-05
9.920701975e-05
7.770791417e-05
2.136643649e-07
9.331952059e-09
4.703947072e-09
4.214456326e-09
8.081064489e-09
2.615447528e-08
5.894393202e-07
1.69900687e-05
3.495752992e-05
1.515164027e-07
6.911424825e-09
3.825887593e-08
2.170785608e-07
1.0289631e-06
3.764374564e-06
1.320282575e-05
5.368322263e-05
0.0002489671195
5.188471641e-09
4.622232336e-09
6.558531181e-09
4.243827224e-09
3.932636411e-08
4.096799522e-06
1.649323191e-05
1.390683084e-07
4.888753928e-09
6.315271454e-10
7.546918232e-11
9.649532362e-11
3.659290264e-10
5.718523061e-10
2.97866967e-09
6.094397873e-09
5.680198821e-07
4.492782906e-06
1.670458682e-07
1.258144076e-08
1.595435773e-10
9.605052452e-09
1.220560285e-09
2.247697113e-05
2.859813037e-05
2.414246543e-05
1.457986693e-05
9.043238228e-06
7.626709526e-06
5.596699183e-06
7.993523471e-06
5.056282433e-06
1.881822672e-05
3.338313635e-05
2.430779922e-05
4.298270931e-05
3.761750725e-05
3.383548653e-05
1.221364567e-06
3.315443268e-06
4.046403546e-06
2.115770977e-06
1.889603023e-06
2.121348626e-06
3.382974852e-06
4.894770689e-06
2.130562021e-05
2.202037712e-05
2.17981762e-05
1.895601566e-05
1.775982227e-05
1.604150574e-05
1.561449833e-05
1.90515758e-05
5.860769753e-06
6.865802425e-06
6.070687473e-06
5.657782811e-06
3.873372288e-06
3.702443822e-06
3.175338467e-06
3.168178357e-06
2.266402345e-05
1.853476886e-05
1.729186767e-05
1.862302604e-05
3.711713297e-06
3.961551036e-06
3.898798067e-06
4.376144456e-06
5.121155623e-05
4.350586156e-05
3.802734167e-05
3.759068246e-05
3.347653446e-05
2.470763063e-05
4.222348715e-06
4.423983622e-06
4.652027279e-06
4.817783605e-06
5.229290962e-06
7.274665973e-05
7.144738001e-05
6.401317824e-05
6.1964715e-06
8.647949259e-06
7.796026322e-05
8.080759705e-05
7.699023105e-05
1.33158979e-05
1.346959939e-05
7.656679358e-05
8.091793614e-05
9.117316661e-05
8.63677987e-05
1.182504197e-05
1.046318559e-05
1.202619795e-05
8.951316701e-06
7.206984789e-05
7.888600774e-05
7.710702814e-05
7.752569134e-06
5.988818848e-06
6.674458154e-06
6.566321362e-05
6.697203511e-05
4.045056035e-06
5.604526789e-05
6.901175377e-05
6.61533744e-05
2.655123116e-06
2.42270884e-06
2.987972865e-06
4.312600683e-05
5.505117575e-05
7.477374643e-05
7.136452045e-05
1.123147252e-06
1.264976805e-06
1.839563804e-06
1.24304873e-06
3.818971123e-05
4.070048332e-05
5.631199358e-07
2.696187998e-05
3.978510906e-05
3.701814507e-05
3.995655064e-07
5.288599698e-07
2.991743262e-05
4.853403705e-05
4.81383086e-05
7.862283529e-08
1.010649192e-07
4.180056449e-07
2.955261274e-05
4.092965562e-05
4.568790582e-05
1.682556815e-07
1.485613619e-07
6.089608211e-08
2.533243936e-05
2.843653845e-05
3.498716056e-05
5.691731651e-07
5.452404499e-07
3.063547661e-07
1.704229348e-05
1.699229949e-05
2.2139189e-05
3.184714853e-06
3.668482519e-06
1.362687969e-06
1.253051184e-05
1.328404602e-05
3.080595475e-06
3.591283263e-06
3.034645955e-05
1.524182282e-05
7.258651604e-07
4.524417901e-05
4.164782399e-05
2.97606573e-05
3.24383977e-05
2.055108308e-07
3.129812794e-07
4.760296448e-07
9.632965367e-06
7.246880002e-06
1.921494385e-05
3.519784377e-07
4.101852808e-07
2.725301245e-07
5.76524894e-07
1.55201844e-06
1.249992126e-06
2.637410659e-08
2.975617837e-08
1.629415545e-08
4.807323116e-07
1.055115597e-06
1.17456011e-06
4.913735496e-08
7.705431562e-08
7.669992286e-08
5.42886391e-08
0.0001104637237
0.0001020209212
0.0001014270265
1.489660093e-07
1.019983335e-07
2.653141571e-05
6.643714772e-05
6.045030793e-07
3.854654166e-07
5.59080406e-08
1.163996567e-07
2.673224742e-08
5.021293347e-08
1.92003191e-08
1.707475965e-08
3.996902223e-08
0.0001421232061
3.98528314e-06
2.362876449e-07
6.814863739e-06
2.35511948e-09
1.481032613e-08
8.41326229e-09
5.677165454e-09
5.165315906e-09
1.115290138e-07
3.483118976e-07
0.0001136070273
4.750429377e-09
4.588049295e-09
4.500560881e-09
4.646850772e-09
5.393293749e-09
4.696824811e-09
5.71260233e-09
9.757225648e-10
1.42386345e-09
1.722800604e-10
2.555875836e-09
3.773881778e-09
6.381245063e-10
1.981109615e-08
4.063215114e-09
3.231993608e-09
3.995593054e-08
3.841174137e-08
2.317579432e-07
1.31843502e-06
3.151934562e-06
1.92122414e-06
1.589750636e-06
4.339396319e-06
1.507866027e-07
3.082988292e-08
3.154097862e-08
1.827959679e-08
4.09627169e-09
4.257385741e-09
3.606351177e-10
3.169717962e-11
1.609786729e-09
1.666790553e-05
1.492459472e-05
1.978738421e-05
1.164753344e-05
9.718890647e-06
9.785576032e-06
9.057527061e-06
1.37600034e-05
1.128822949e-05
2.344089183e-05
3.030535127e-05
3.415816417e-05
3.160976587e-05
2.438057366e-05
3.150514308e-05
2.033808006e-06
1.324280465e-06
2.185576532e-06
1.768019409e-06
1.719240316e-06
1.741488571e-06
1.901976215e-06
3.491348847e-06
3.391528058e-06
1.857830396e-05
2.154352967e-05
2.093173589e-05
2.377657279e-05
2.161026126e-05
2.026770645e-05
1.543693371e-05
1.183627772e-05
1.309693185e-05
1.058510461e-05
9.696289413e-06
1.146622549e-05
9.074287778e-06
9.10183621e-06
9.375609128e-06
1.069413255e-05
1.504415284e-05
1.499326082e-05
1.894706745e-05
1.894979209e-05
2.478763198e-05
1.674219702e-05
1.2628455e-05
1.814445606e-05
1.010552462e-05
2.475417701e-06
1.153902738e-06
1.896062569e-06
1.809197834e-06
1.740458805e-06
1.847313722e-06
3.713569637e-06
3.63287382e-06
7.776260135e-06
1.213758422e-05
9.060694611e-06
1.422721786e-05
1.175046261e-05
6.198534979e-06
6.877470267e-06
4.236889141e-06
3.32037974e-06
3.134197089e-05
3.029242501e-05
2.091422919e-05
3.023161276e-05
3.100600935e-05
2.447405273e-05
3.107365733e-05
2.731176245e-05
2.37050141e-05
1.949549712e-05
1.406680661e-05
1.204000945e-05
1.171202407e-05
1.019365528e-05
9.331749056e-06
9.503751529e-06
9.730361189e-06
9.147848175e-06
1.134387302e-05
1.364572107e-05
1.438080039e-05
1.283264129e-05
9.184792077e-06
1.355619751e-05
6.210366983e-06
4.110667913e-06
7.76248898e-06
6.892178363e-06
7.847946688e-06
5.850456919e-06
3.538770814e-06
1.997711753e-06
1.912652083e-06
1.673276469e-06
3.28423027e-06
3.623265718e-06
6.969162513e-06
1.132124104e-05
1.329398682e-05
1.637335558e-05
2.112341975e-05
1.880468932e-05
1.990621284e-05
1.181361817e-05
6.789971917e-06
6.127035646e-06
4.414083775e-06
4.025233562e-06
7.244232065e-05
7.372980191e-05
5.555997953e-05
7.419997278e-05
7.291033821e-05
5.054391789e-05
6.966901901e-05
6.485774084e-05
4.583598729e-05
5.932436878e-05
5.3721635e-05
4.127613448e-05
4.781485445e-05
4.066573602e-05
3.298333074e-05
3.232801555e-05
2.505981022e-05
1.8415219e-05
1.993704862e-05
1.619426016e-05
1.241637379e-05
1.387292448e-05
1.302438316e-05
1.101763612e-05
1.352883944e-05
1.383659808e-05
1.33563703e-05
1.055326519e-05
5.181629492e-06
6.2564475e-06
2.018076165e-06
1.035475769e-06
1.952103088e-06
1.105439036e-06
2.47966531e-06
5.707636352e-06
3.681813013e-06
1.68438263e-06
1.944699134e-06
1.215487154e-06
1.984706172e-06
2.69977262e-06
3.407411477e-06
5.174103568e-06
8.003336273e-06
7.898072651e-06
1.272482155e-05
1.777013696e-05
1.902208214e-05
2.051377726e-05
1.754731192e-05
1.396219326e-05
7.701820331e-06
5.478157489e-06
5.248867675e-06
4.6403115e-06
4.376597105e-06
4.635366459e-06
5.022757107e-06
5.134079677e-06
8.79451628e-05
9.707474869e-05
8.366365654e-05
0.0001066926718
0.0001136731828
9.466362043e-05
0.000115562149
0.0001118086209
9.524826228e-05
0.0001036923141
9.339367553e-05
8.223332792e-05
8.292400854e-05
7.339916418e-05
6.537978024e-05
6.489969154e-05
5.688806313e-05
4.926869798e-05
4.891188915e-05
4.104566632e-05
3.309884158e-05
3.364055054e-05
2.703117071e-05
2.131356777e-05
2.176914721e-05
1.8305853e-05
1.555130045e-05
1.669196612e-05
1.611440746e-05
1.502588375e-05
1.484160442e-05
1.103597851e-05
7.016806279e-06
4.99471013e-06
1.97904971e-06
1.205225975e-06
8.257603898e-07
1.308430607e-06
1.134467349e-06
2.495835982e-06
1.101040947e-06
1.355075899e-06
6.698660224e-07
7.911775902e-07
1.308454588e-06
1.265790705e-06
2.126127826e-06
3.284511764e-06
3.432954568e-06
5.814371393e-06
8.594045752e-06
1.035935237e-05
1.657764251e-05
1.972873849e-05
1.970988587e-05
1.656258526e-05
1.155612744e-05
1.152217857e-05
8.277309568e-06
5.59934206e-06
6.742441748e-06
6.846890581e-06
5.420064855e-06
8.860907262e-06
1.136584463e-05
1.024952629e-05
0.0001045801071
0.0001189486616
0.0001092879835
0.0001300533048
0.000134289412
0.0001271152043
0.0001305572828
0.0001205760335
0.0001198601907
0.0001076249254
9.482717576e-05
9.697886515e-05
8.402953333e-05
7.560832614e-05
7.660034057e-05
6.892386345e-05
6.297607349e-05
6.176068564e-05
5.694155404e-05
5.044038031e-05
4.724418686e-05
4.354810123e-05
3.665445726e-05
3.239159823e-05
3.0233991e-05
2.45892835e-05
2.120418552e-05
1.986773449e-05
1.618243207e-05
1.590996076e-05
1.327403973e-05
1.031550776e-05
1.07360018e-05
6.855228313e-06
3.892543225e-06
2.401396218e-06
3.757314552e-06
5.024342787e-06
1.684829651e-06
1.686071687e-06
8.793816576e-07
9.310249518e-07
2.773844511e-07
2.660958308e-07
4.568966911e-07
5.53473663e-07
1.042713462e-06
1.438197564e-06
1.745283843e-06
2.901665216e-06
4.037732534e-06
5.103743897e-06
9.151910557e-06
1.269428186e-05
1.493006235e-05
2.023337747e-05
2.027671894e-05
2.282621959e-05
2.237662459e-05
1.425388313e-05
1.999931559e-05
1.791203896e-05
1.057841596e-05
1.608720308e-05
1.400945995e-05
1.208348896e-05
8.838992344e-05
0.0001019566887
9.654226099e-05
0.0001176742994
0.0001311932499
0.0001261179215
0.0001379004848
0.0001355589278
0.0001366028364
0.0001253880465
0.0001109931068
0.0001169007626
9.623302608e-05
8.359906659e-05
8.974791777e-05
7.383353843e-05
6.648558318e-05
7.180185677e-05
6.07274763e-05
5.592686888e-05
6.06652051e-05
5.179306995e-05
4.82323295e-05
5.040876786e-05
4.515853868e-05
4.231669728e-05
3.968747399e-05
3.90787626e-05
3.452488824e-05
2.886602736e-05
2.824898913e-05
2.125906432e-05
1.781065498e-05
1.563558303e-05
1.401579316e-05
1.037101236e-05
2.266771224e-05
3.94222261e-05
1.216949593e-05
4.039714056e-05
2.179116287e-05
1.551049049e-05
1.061561916e-06
7.958118889e-07
1.009766938e-06
1.506619292e-07
1.507803852e-07
1.695188107e-07
3.879925052e-07
7.060767281e-07
8.243400114e-07
1.118730412e-06
1.721687317e-06
2.175439852e-06
2.744677544e-06
4.555104668e-06
6.422907011e-06
7.600721692e-06
1.217620089e-05
1.677116748e-05
1.811183724e-05
2.442659738e-05
2.673174783e-05
2.930942612e-05
3.07289144e-05
2.657492057e-05
2.844724267e-05
2.34304325e-05
1.824417313e-05
1.706517083e-05
1.139641454e-05
9.984913792e-06
7.461513512e-05
8.46782439e-05
8.106445628e-05
9.766423693e-05
0.0001126492905
0.0001074244413
0.0001263943697
0.0001343781775
0.000134206255
0.0001334429777
0.000123891628
0.0001315416573
0.0001091799961
9.363719905e-05
0.0001033821505
8.024675252e-05
6.989446272e-05
7.698711524e-05
6.197016309e-05
5.551031441e-05
6.073942881e-05
5.01486333e-05
4.63552799e-05
5.050925388e-05
4.490615496e-05
4.610826644e-05
4.599788177e-05
4.929534263e-05
5.270599921e-05
4.620833677e-05
5.382348605e-05
5.043685634e-05
4.199033524e-05
4.227080376e-05
3.306621941e-05
2.636598273e-05
3.518888627e-05
5.907104924e-05
3.127978334e-05
7.193298462e-05
5.879836338e-05
6.115908498e-05
3.71212804e-05
1.689675937e-05
2.020769421e-05
2.665940612e-06
5.817100195e-07
5.91544378e-07
1.255999389e-07
1.416468195e-07
1.432156945e-07
3.477666784e-07
5.974228116e-07
6.392168061e-07
9.007523216e-07
1.288658962e-06
1.448915756e-06
1.83462904e-06
2.667390571e-06
3.377424165e-06
3.929895512e-06
5.807391158e-06
8.335389022e-06
8.619543978e-06
1.265946264e-05
1.846958209e-05
1.761195967e-05
2.230944748e-05
2.831961374e-05
2.517262321e-05
2.468677545e-05
2.613590691e-05
2.021462536e-05
1.36112113e-05
1.309780612e-05
8.234176863e-06
5.259341201e-06
5.531730968e-06
8.155459362e-05
9.426249422e-05
8.937427799e-05
0.0001064639335
0.0001168066427
0.0001164373201
0.0001225210314
0.0001207460698
0.0001302705496
0.0001109704643
9.602977029e-05
0.0001118979718
8.04422456e-05
6.780471566e-05
8.151196732e-05
5.945224551e-05
5.472493864e-05
6.233375697e-05
5.196974418e-05
4.976329651e-05
5.162953315e-05
4.804952348e-05
4.831169676e-05
4.521563593e-05
5.201409568e-05
5.839566023e-05
5.031031e-05
6.41743656e-05
6.60166651e-05
6.068563143e-05
6.286402781e-05
5.59479544e-05
5.643419286e-05
4.770099441e-05
4.262638332e-05
4.042660184e-05
4.546558078e-05
4.583508583e-05
6.68900712e-05
3.449875861e-05
2.342614254e-05
4.290870533e-05
1.512878729e-05
8.722737482e-06
1.308930306e-05
5.09680681e-06
6.893209372e-07
6.098889394e-07
1.456154381e-07
1.519405596e-07
1.44514064e-07
3.376984596e-07
5.448571893e-07
5.678077354e-07
8.007263713e-07
1.121966103e-06
1.190473343e-06
1.508888979e-06
1.980557747e-06
2.24277462e-06
2.59202722e-06
3.412842665e-06
4.310049516e-06
4.551342378e-06
6.208105398e-06
8.621162971e-06
8.572936986e-06
1.151171824e-05
1.616159803e-05
1.421378101e-05
1.519275478e-05
2.034391126e-05
1.322390732e-05
9.203347624e-06
1.215602609e-05
5.651167697e-06
3.587208743e-06
4.616427634e-06
8.9111134e-05
9.749675174e-05
9.761002634e-05
0.000101064925
0.0001010708428
0.0001118780751
9.717100494e-05
8.846882584e-05
0.0001061276693
7.574350906e-05
6.192499737e-05
7.83988526e-05
5.040529989e-05
4.328335741e-05
5.436516484e-05
4.099723429e-05
4.281453857e-05
4.789974144e-05
4.733518767e-05
5.315985647e-05
5.030386556e-05
5.942103462e-05
6.631280873e-05
5.580906298e-05
7.282701537e-05
7.524239269e-05
6.773109842e-05
7.041154804e-05
5.991756476e-05
6.532836595e-05
4.873899208e-05
4.131521953e-05
4.917720848e-05
3.995728766e-05
4.434685252e-05
3.832585931e-05
4.732710433e-05
3.800763511e-05
2.152158337e-05
2.857182565e-05
2.05310739e-05
1.071026135e-05
1.100674139e-05
7.58326424e-06
7.911600861e-06
3.535795307e-06
1.067123712e-06
8.935590054e-07
2.006894553e-07
1.900094405e-07
1.656116169e-07
3.451395771e-07
5.119108014e-07
5.264778398e-07
7.322725638e-07
1.014623948e-06
1.065983541e-06
1.335750064e-06
1.657972399e-06
1.802164974e-06
1.991389e-06
2.407303689e-06
2.828488402e-06
2.994013179e-06
3.83273313e-06
4.772051506e-06
4.952994713e-06
6.183816167e-06
8.379757373e-06
6.957050994e-06
6.508625887e-06
1.047814368e-05
4.853984509e-06
3.114942945e-06
5.868555036e-06
1.999430149e-06
1.394746113e-06
2.412102892e-06
6.138038168e-05
7.949098134e-05
7.822338042e-05
8.597246917e-05
8.270243164e-05
9.250595622e-05
7.549788826e-05
6.823600508e-05
8.565219349e-05
6.158331265e-05
5.465146273e-05
7.058196895e-05
4.713836242e-05
4.00889467e-05
4.888797609e-05
3.519249394e-05
3.379534111e-05
3.607438787e-05
3.620279001e-05
4.138658246e-05
4.032010435e-05
4.90434234e-05
6.215258015e-05
5.755754521e-05
7.558190804e-05
8.623542746e-05
7.72583931e-05
8.993435553e-05
8.375673231e-05
8.006245802e-05
6.950917674e-05
5.373030374e-05
5.451032588e-05
4.30770717e-05
4.16369629e-05
3.764229808e-05
5.239019544e-05
7.556668863e-05
5.712404477e-05
9.448274064e-05
7.82330648e-05
5.903938066e-05
5.7276185e-05
4.361083362e-05
3.155528122e-05
3.028863368e-05
2.287115074e-05
1.285179846e-05
1.069689702e-05
1.796760591e-06
1.338378493e-06
4.242384827e-07
3.3478671e-07
2.367006068e-07
3.862843087e-07
4.960830605e-07
5.012435107e-07
6.804090185e-07
9.108643928e-07
9.639234292e-07
1.152069372e-06
1.365400335e-06
1.517828932e-06
1.554112434e-06
1.789542695e-06
2.073850017e-06
2.147469885e-06
2.58493076e-06
3.143022228e-06
2.897560916e-06
2.805032645e-06
4.409988513e-06
2.164742747e-06
1.367617808e-06
3.368690559e-06
8.413202181e-07
5.597227154e-07
1.388824146e-06
3.989718365e-07
3.03536571e-07
6.910616218e-07
2.781109288e-07
3.689287255e-07
6.707548652e-07
6.451476132e-05
7.292729284e-05
7.787838546e-05
6.742749453e-05
5.606746787e-05
6.976650438e-05
4.540903482e-05
3.794794421e-05
5.164132585e-05
3.357270725e-05
3.150283162e-05
4.158238778e-05
3.157307046e-05
3.485170334e-05
3.524669583e-05
4.25996366e-05
5.259795623e-05
3.847053438e-05
5.76811934e-05
5.348262223e-05
4.703492001e-05
4.89043668e-05
6.712349357e-05
6.55805877e-05
8.232804472e-05
9.456806705e-05
9.201832017e-05
9.90785463e-05
9.460240714e-05
8.844039529e-05
8.440927478e-05
7.455695486e-05
6.043052083e-05
7.049137173e-05
7.50022139e-05
5.484020348e-05
8.694951724e-05
9.851533236e-05
9.203741839e-05
9.566375653e-05
7.389578581e-05
8.293856268e-05
5.593836063e-05
5.093056832e-05
5.109260664e-05
5.338578859e-05
3.785282168e-05
3.337359971e-05
1.921163089e-05
5.631542301e-06
2.734466705e-06
1.512238866e-06
1.062135241e-06
5.533549183e-07
5.619295735e-07
5.188256277e-07
5.00320696e-07
6.442120863e-07
7.809420611e-07
8.517944337e-07
8.983242959e-07
1.014725304e-06
1.195573623e-06
1.134154434e-06
1.30817815e-06
1.53663499e-06
1.598169668e-06
1.510192586e-06
2.079785687e-06
9.897568966e-07
5.66366122e-07
1.424847433e-06
3.322047091e-07
2.082378557e-07
5.027990604e-07
1.441872678e-07
1.105934187e-07
2.324295124e-07
8.548525839e-08
6.380748101e-08
1.307329712e-07
7.091412454e-08
1.451402571e-07
2.153969892e-07
5.773933228e-05
5.411388859e-05
6.453286751e-05
4.393994664e-05
3.376725251e-05
4.368503662e-05
2.637766656e-05
2.198582088e-05
2.810657992e-05
2.085496237e-05
2.583785071e-05
2.516004069e-05
4.08701863e-05
5.953036337e-05
4.289578015e-05
6.738783066e-05
6.072129666e-05
6.659358819e-05
4.681654626e-05
3.526633057e-05
4.930230107e-05
3.909222693e-05
6.734258705e-05
6.71545181e-05
7.912257784e-05
9.177365738e-05
9.436482067e-05
9.848688542e-05
9.963758662e-05
9.974486372e-05
9.831093994e-05
9.796847448e-05
9.050629784e-05
0.0001000379733
0.0001025759634
9.40785125e-05
0.0001011918923
9.2886074e-05
9.574283074e-05
7.943391007e-05
6.509550032e-05
6.380244976e-05
5.106879235e-05
3.725194097e-05
4.455988875e-05
4.227399577e-05
3.200285736e-05
3.587108328e-05
2.707950769e-05
3.866231229e-05
1.551182493e-05
1.789527224e-05
6.586482939e-06
2.380908946e-06
9.045168802e-07
5.716473092e-07
5.501948588e-07
6.152460286e-07
5.616855183e-07
6.88484562e-07
5.390106942e-07
7.051630145e-07
8.430816852e-07
9.195074404e-07
9.533148898e-07
1.096262606e-06
8.519572589e-07
5.104212796e-07
7.231065849e-07
3.678330309e-07
3.241003834e-07
2.738430747e-07
1.099553258e-07
4.872827966e-08
9.525714445e-08
3.709959105e-08
3.257277628e-08
5.977809821e-08
2.968909979e-08
2.367537523e-08
4.823314659e-08
2.761365584e-08
4.906290721e-08
1.539670214e-07
4.108549756e-05
3.44577384e-05
4.367136485e-05
2.692997975e-05
2.128843373e-05
2.643970079e-05
1.7937874e-05
1.776060459e-05
1.89161293e-05
2.541453742e-05
4.261779044e-05
3.696936727e-05
5.418561552e-05
5.09177408e-05
6.590971054e-05
3.913845634e-05
2.573763943e-05
4.199544225e-05
1.576978717e-05
1.39154803e-05
2.261414254e-05
3.525581826e-05
6.676142723e-05
6.917342195e-05
6.976863517e-05
8.00261458e-05
8.690584495e-05
8.406557651e-05
8.326669333e-05
9.290321973e-05
8.105919633e-05
8.064018851e-05
9.206738854e-05
8.385249266e-05
9.116458575e-05
9.872766354e-05
0.0001011590548
0.0001087869096