/*--------------------------------*- C++ -*----------------------------------*\
| =========                 |                                                 |
| \\      /  F ield         | OpenFOAM: The Open Source CFD Toolbox           |
|  \\    /   O peration     | Version:  2.1.x                                 |
|   \\  /    A nd           | Web:      www.OpenFOAM.org                      |
|    \\/     M anipulation  |                                                 |
\*---------------------------------------------------------------------------*/
FoamFile
{
    version     2.0;
    format      ascii;
    class       surfaceScalarField;
    location    "1.1";
    object      phi;
}
// * * * * * * * * * * * * * * * * * * * * * * * * * * * * * * * * * * * * * //

dimensions      [1 1 -1 0 0 0 0];

internalField   nonuniform List<scalar> 
5536
(
2.564668947e-10
-7.552481869e-10
-3.172785048e-10
8.258559083e-10
-5.138033139e-09
-1.752202266e-09
2.476013988e-09
-1.747304816e-08
-1.978250687e-09
4.951860585e-11
-8.860221319e-11
-1.841386678e-11
-3.783565534e-11
-2.41652017e-10
-4.564895605e-09
-1.641465093e-09
1.171578117e-09
-2.65768836e-09
-7.98345792e-10
3.903854014e-09
1.406871491e-09
-2.708209676e-09
-1.275589474e-09
1.698805852e-09
8.627259055e-10
-1.535226867e-09
-5.690195235e-10
9.693501173e-10
4.31526946e-10
-1.210627768e-09
-7.921511879e-10
7.162080029e-09
1.999402595e-09
-7.841202745e-09
-3.242014526e-09
1.750452168e-08
3.504044527e-09
-1.471774878e-08
-2.315125978e-09
8.477508457e-11
3.696194283e-11
-1.863114966e-10
-1.109597916e-11
1.585156419e-10
-8.362180059e-13
-1.445746575e-10
1.510605589e-11
2.600833435e-10
-3.127446942e-11
-2.613780579e-10
3.832231203e-11
6.553252272e-10
-5.956339981e-10
-2.458319845e-11
-5.894101404e-11
-6.96646145e-11
-3.805556028e-10
1.008434708e-10
-4.579129283e-09
-2.564310896e-09
4.881170731e-09
2.015362229e-09
-3.978108362e-09
-2.326510088e-09
4.154737583e-09
2.232103353e-09
-4.348440079e-09
-1.88415588e-09
2.484803556e-09
1.349411088e-09
-2.389338119e-09
-1.014310744e-09
1.923421723e-09
8.636582858e-10
-1.539416542e-09
-7.454832304e-10
1.340818951e-09
6.097073784e-10
-1.20616619e-09
-5.218902006e-10
1.409166888e-09
5.692002242e-10
-1.513810274e-09
-1.03854993e-09
7.353837821e-09
1.935858971e-09
-6.172416588e-09
-2.423385374e-09
1.10272134e-08
2.187025498e-09
-7.430837927e-09
-1.336509138e-09
5.999859862e-10
1.865731248e-10
-1.508867399e-09
-2.863822781e-12
1.412178978e-10
-4.090475824e-12
-1.591307373e-10
2.093987725e-11
2.687295989e-10
-3.591154991e-11
-2.769035728e-10
3.805043431e-11
6.810837835e-10
-6.069023286e-11
-7.73147613e-10
1.029281294e-10
6.205979887e-10
-1.541588206e-10
-1.149448826e-09
1.747757104e-10
2.464187811e-10
-1.419210212e-10
-4.258776257e-10
1.033143657e-10
-2.00428272e-10
1.039545583e-10
-7.084126486e-11
5.579136673e-09
-8.481051104e-09
-4.147790742e-09
4.755388914e-09
3.508401777e-09
-6.675137208e-09
-3.06301376e-09
4.509150484e-09
2.870512018e-09
-6.141762741e-09
-2.838222533e-09
4.800288142e-09
2.771322003e-09
-5.725251334e-09
-2.334585355e-09
2.497248703e-09
1.538883196e-09
-2.950422532e-09
-1.015486314e-09
1.444948307e-09
7.668429594e-10
-1.584291304e-09
-6.130012285e-10
1.163105909e-09
5.185933098e-10
-1.225130113e-09
-4.811606482e-10
1.534304901e-09
5.565805156e-10
-1.530461089e-09
-8.672684605e-10
4.746946644e-09
1.251310552e-09
-3.42301797e-09
-1.254475933e-09
4.470209143e-09
9.512424756e-10
-2.396893051e-09
-5.406451617e-10
2.095311601e-09
1.355849911e-10
-1.603244913e-09
2.332426367e-10
2.141411612e-10
-6.795155878e-11
-3.07246285e-10
4.069879006e-11
2.804181862e-10
-4.471530247e-11
-2.746962596e-10
3.904010378e-11
8.093384621e-10
-6.128269839e-11
-7.370353867e-10
1.369388849e-10
1.728127922e-09
-2.8740414e-10
-1.822184135e-09
4.712505385e-10
9.040194761e-10
-5.418566708e-10
-1.685596525e-09
3.862913709e-10
2.36033904e-10
-2.095285558e-10
-3.306147609e-10
1.438707264e-10
2.366907561e-10
-2.125835778e-10
1.385174559e-10
-1.381143609e-10
-1.62655828e-10
-2.438407352e-10
1.326829975e-08
1.11082893e-08
-1.585026595e-08
-1.069722854e-08
1.171780072e-08
1.014578456e-08
-1.671120991e-08
-9.548354261e-09
1.044168886e-08
8.834249274e-09
-1.577620404e-08
-8.005816782e-09
9.071816629e-09
7.122527599e-09
-1.304545927e-08
-6.249190874e-09
7.306669351e-09
5.328173035e-09
-9.583035289e-09
-4.194137273e-09
3.901374877e-09
2.896253048e-09
-5.448806402e-09
-1.903816487e-09
2.003337751e-09
1.315332165e-09
-2.810471692e-09
-9.401814481e-10
1.411936744e-09
7.172984173e-10
-1.756582575e-09
-6.060081343e-10
1.564092389e-09
5.912409562e-10
-1.664374555e-09
-6.544807359e-10
2.414878608e-09
6.60418222e-10
-1.811299588e-09
-4.864190396e-10
1.18798681e-09
2.823065623e-10
-6.472860773e-10
-1.40727525e-10
7.950454825e-10
1.3900777e-11
-2.985058601e-10
1.328769921e-10
3.76513185e-10
-1.324324926e-10
-3.630406586e-10
7.823085271e-11
2.56841301e-10
-5.170800334e-11
-2.275364095e-10
3.512560592e-11
5.773660719e-10
-4.840464937e-11
-4.05348612e-10
1.043163344e-10
1.449141205e-09
-1.996624954e-10
-9.959025217e-10
3.519810352e-10
2.213885648e-09
-5.85701074e-10
-2.135602784e-09
7.532177695e-10
5.393215495e-10
-5.911032058e-10
-9.107159857e-10
3.199150489e-10
2.249951215e-10
-1.954523469e-10
-2.653392365e-10
1.661367384e-10
2.237755091e-10
-1.667728265e-10
-2.236176124e-10
1.748053131e-10
-2.78133797e-10
-1.844096099e-10
1.670724441e-08
1.436909983e-08
-1.842222741e-08
-1.599921361e-08
1.979510788e-08
1.758735563e-08
-2.420697809e-08
-1.910547438e-08
2.263060971e-08
1.998982503e-08
-2.809865505e-08
-1.985946522e-08
2.147082982e-08
1.868681117e-08
-2.600975619e-08
-1.676234543e-08
1.718457165e-08
1.450420158e-08
-2.043436821e-08
-1.223705279e-08
1.229218783e-08
1.008654231e-08
-1.487016703e-08
-8.037860539e-09
7.532983998e-09
6.116721275e-09
-9.853312297e-09
-4.458028388e-09
4.067673743e-09
3.155681436e-09
-5.678661138e-09
-2.178018032e-09
2.292096375e-09
1.50679579e-09
-3.026783042e-09
-1.099802322e-09
1.82716197e-09
8.862683249e-10
-2.021285787e-09
-7.49332616e-10
1.597760673e-09
5.513049904e-10
-1.635918934e-09
-2.827520735e-10
5.185992689e-10
1.083363915e-10
-5.332894439e-10
-6.586628302e-11
1.698415332e-10
3.316406617e-11
-2.005397467e-10
1.744956054e-13
3.177229583e-10
-2.602602354e-11
-2.973403857e-10
4.740362094e-11
1.921664926e-10
-4.430880296e-11
-1.559558068e-10
2.58951814e-11
2.703077819e-10
-2.595193561e-11
-1.801956975e-10
5.038729796e-11
6.633279888e-10
-9.243563069e-11
-4.568711727e-10
1.617850027e-10
1.709915975e-09
-2.975801563e-10
-1.244738798e-09
5.363173153e-10
1.373154977e-09
-7.433861547e-10
-1.699696674e-09
6.606164021e-10
3.688657265e-10
-4.195743558e-10
-6.168046227e-10
2.712005487e-10
2.422128778e-10
-2.14026195e-10
-3.114411856e-10
1.934472917e-10
3.047703008e-10
-1.971589744e-10
-3.964508657e-10
2.498128557e-10
-8.445644437e-10
-3.483355399e-10
1.498331339e-08
-1.642466911e-08
-1.65652238e-08
1.897231073e-08
2.066172967e-08
-2.282973079e-08
-2.220955805e-08
2.82507043e-08
2.555563287e-08
-3.138480193e-08
-2.797738657e-08
3.200841921e-08
2.871068679e-08
-3.407627029e-08
-2.761980086e-08
2.852384049e-08
2.517711648e-08
-2.912689386e-08
-2.212026108e-08
2.219423827e-08
1.906578062e-08
-2.252719955e-08
-1.633005205e-08
1.673500288e-08
1.393783085e-08
-1.756454297e-08
-1.176513149e-08
1.191852804e-08
9.695469388e-09
-1.323837427e-08
-7.709566188e-09
7.369516812e-09
5.867002691e-09
-8.791876446e-09
-4.259903936e-09
3.938943198e-09
2.973856118e-09
-4.997657528e-09
-2.040239274e-09
2.228950321e-09
1.425610575e-09
-2.590352947e-09
-1.043340615e-09
1.521235987e-09
7.790352404e-10
-1.425615353e-09
-5.304410115e-10
5.727835883e-10
2.80185795e-10
-6.134581126e-10
-1.16390712e-10
2.766593591e-10
6.094743974e-11
-7.155026048e-10
3.476662554e-12
2.637137395e-10
-5.072414136e-11
-2.30621407e-10
3.990646496e-11
1.198571275e-10
-4.148471797e-11
-8.309286116e-11
1.647942997e-11
1.263761968e-10
-1.10339159e-11
-9.826381365e-11
2.440374039e-11
3.321010939e-10
-4.849395399e-11
-2.556521175e-10
8.492586065e-11
8.73420225e-10
-1.508824345e-10
-6.143246683e-10
2.884394126e-10
1.718327472e-09
-5.318577199e-10
-1.462069707e-09
7.89802103e-10
1.090364796e-09
-8.688119818e-10
-1.611367482e-09
7.538281987e-10
5.256665452e-10
-5.769550548e-10
-1.048837017e-09
4.285875486e-10
5.777065217e-10
-3.870335916e-10
-9.26582039e-10
4.424376184e-10
8.173531676e-10
-8.848324949e-10
5.720689389e-10
-5.113639248e-10
-1.188444738e-08
-1.320604514e-08
1.661943443e-08
1.514432669e-08
-1.721189633e-08
-1.820272493e-08
2.465662792e-08
2.243307017e-08
-2.628733275e-08
-2.703819705e-08
3.349817561e-08
3.076414999e-08
-3.471798469e-08
-3.24739644e-08
3.46540054e-08
3.178587035e-08
-3.416314953e-08
-2.919661986e-08
2.846073173e-08
2.568516884e-08
-2.705647387e-08
-2.215368752e-08
2.184478539e-08
1.910424683e-08
-2.0541236e-08
-1.662327482e-08
1.733801038e-08
1.455513485e-08
-1.627875508e-08
-1.270373199e-08
1.35575486e-08
1.094043367e-08
-1.30085084e-08
-9.229277398e-09
9.717834726e-09
7.598887601e-09
-1.023835267e-08
-6.096775938e-09
6.198153004e-09
4.745878614e-09
-7.66964639e-09
-3.53181558e-09
3.273889035e-09
2.459157962e-09
-4.447381038e-09
-1.596275239e-09
1.46620069e-09
1.002217527e-09
-1.798491845e-09
-6.444906816e-10
8.07981089e-10
5.084293019e-10
-3.287479951e-09
-9.872920127e-10
4.269637509e-09
2.930510583e-09
-1.766286446e-08
-3.522984626e-09
1.695487624e-10
1.420219652e-10
-1.23460627e-10
3.652673754e-11
4.37721321e-11
-3.130796494e-12
-3.543931099e-11
2.427266799e-13
8.665669669e-11
-5.680069138e-12
-8.442175525e-11
1.74570808e-11
2.096487375e-10
-3.411706473e-11
-1.839284843e-10
5.681331797e-11
4.458901782e-10
-9.272435949e-11
-3.413577789e-10
1.616405432e-10
1.094674229e-09
-3.003069998e-10
-7.659261723e-10
5.45311474e-10
1.778506175e-09
-8.823362681e-10
-1.519824143e-09
1.232282478e-09
1.766698003e-09
-1.48057403e-09
-2.095421481e-09
1.544567196e-09
1.488164315e-09
-1.422825401e-09
-2.027554054e-09
1.177662652e-09
1.048750829e-09
-8.950130372e-10
-1.33429837e-09
6.449423563e-10
6.669840074e-10
-6.349168297e-10
3.640399254e-10
-4.757951375e-10
1.252157789e-08
1.15298426e-08
-1.253122921e-08
-1.380870707e-08
1.805838139e-08
1.686303434e-08
-1.905045943e-08
-2.106287136e-08
2.774129815e-08
2.601041382e-08
-2.885012247e-08
-3.055526535e-08
3.509093964e-08
3.327657053e-08
-3.441472137e-08
-3.3354611e-08
3.273142318e-08
3.102940077e-08
-3.02339078e-08
-2.732752591e-08
2.51109049e-08
2.337160173e-08
-2.26090854e-08
-1.986170501e-08
1.888642387e-08
1.699156257e-08
-1.706967669e-08
-1.465307253e-08
1.478575413e-08
1.269848243e-08
-1.333292249e-08
-1.107431122e-08
1.208252655e-08
9.805607378e-09
-1.14495795e-08
-8.905259094e-09
1.082060836e-08
8.307025738e-09
-1.214310611e-08
-7.835982267e-09
9.764874018e-09
7.211448746e-09
-1.281067791e-08
-6.154196195e-09
6.249739605e-09
4.640709018e-09
-8.682151629e-09
-3.079093392e-09
2.826714618e-09
2.293459113e-09
-5.902630113e-09
-4.747938484e-09
1.608799382e-08
1.678555321e-08
-3.27388044e-08
-3.007394036e-08
2.851883305e-08
2.626176215e-08
-2.685131028e-08
-1.188870709e-08
1.279329115e-10
3.406346417e-10
-3.309783144e-10
-2.441462754e-11
3.416856878e-11
5.46585211e-12
-3.713058354e-11
6.340344094e-14
8.591611592e-11
-6.860264787e-12
-8.913255265e-11
1.821319532e-11
1.712545877e-10
-3.23804764e-11
-1.660526766e-10
4.974374608e-11
2.792076417e-10
-7.32444593e-11
-2.440842991e-10
1.111972383e-10
5.373344922e-10
-1.788316769e-10
-3.990593984e-10
2.983176192e-10
1.096846658e-09
-4.992540143e-10
-7.394471818e-10
8.131668612e-10
1.854778245e-09
-1.23902114e-09
-1.36960056e-09
1.688736713e-09
2.183876162e-09
-1.991173028e-09
-1.918684709e-09
2.002405403e-09
1.575371809e-09
-1.684831011e-09
-1.590644867e-09
1.170111426e-09
6.873657529e-10
-7.169281312e-10
-6.965970881e-10
4.449791535e-10
-3.020560259e-10
-2.781723795e-10
-6.915189725e-09
-9.562548614e-09
1.21937888e-08
1.276594765e-08
-1.327076255e-08
-1.53765791e-08
2.012828813e-08
1.941024745e-08
-2.095880121e-08
-2.410391387e-08
2.922822682e-08
2.865287196e-08
-2.837868858e-08
-3.173589849e-08
3.234363733e-08
3.225692877e-08
-2.872416263e-08
-3.014947876e-08
2.656787694e-08
2.640454367e-08
-2.197180696e-08
-2.234896526e-08
1.955856706e-08
1.887748825e-08
-1.617964738e-08
-1.62227769e-08
1.525873426e-08
1.417861257e-08
-1.362273446e-08
-1.246607775e-08
1.235902993e-08
1.102191227e-08
-1.218701897e-08
-1.005413632e-08
1.175018499e-08
9.826264457e-09
-1.338623212e-08
-1.035975238e-08
1.465181479e-08
1.127524517e-08
-1.792578697e-08
-1.187454223e-08
1.632933226e-08
1.148673586e-08
-1.866504884e-08
-9.890131753e-09
1.125356741e-08
7.537010914e-09
-1.277912149e-08
-6.02673459e-09
1.110590075e-08
1.098165057e-08
-1.191890177e-08
-2.888168103e-08
3.241914591e-08
4.01483025e-08
-1.797042497e-08
-3.338968922e-08
1.849566814e-08
2.018927093e-08
-9.011769277e-09
-8.559519658e-09
1.140240789e-09
1.901233881e-09
-1.569624855e-09
-4.870750581e-11
4.121622746e-11
7.432599167e-12
-4.651331175e-11
4.834354377e-14
9.324618104e-11
-8.856928954e-12
-9.799588499e-11
2.094797805e-11
1.643674387e-10
-3.499050855e-11
-1.638417028e-10
5.16026685e-11
2.251024902e-10
-7.174381776e-11
-2.144949862e-10
9.793107686e-11
3.18368889e-10
-1.360091663e-10
-2.687835927e-10
1.936612262e-10
5.103917242e-10
-2.799931133e-10
-3.762035774e-10
4.115239682e-10
9.314581878e-10
-6.143256725e-10
-6.341219608e-10
8.983534957e-10
1.465276257e-09
-1.216556274e-09
-1.035176298e-09
1.448742947e-09
1.361984575e-09
-1.442079994e-09
-1.011554093e-09
1.145289889e-09
6.284728444e-10
-7.425836657e-10
-4.910979836e-10
4.480249262e-10
2.863298709e-10
-2.117279501e-10
1.974890577e-10
-2.834717914e-10
6.785575403e-09
-6.799925863e-09
-9.969577542e-09
1.366781653e-08
1.401573026e-08
-1.448553668e-08
-1.751282021e-08
2.1055726e-08
2.126362461e-08
-1.995182364e-08
-2.465296455e-08
2.596714119e-08
2.701368709e-08
-2.214700739e-08
-2.744064964e-08
2.392896601e-08
2.555839437e-08
-1.875956155e-08
-2.202332176e-08
1.710522706e-08
1.812964465e-08
-1.277738011e-08
-1.497310517e-08
1.289776881e-08
1.298979768e-08
-1.017564221e-08
-1.204946344e-08
1.232211647e-08
1.175817446e-08
-1.145987214e-08
-1.175512751e-08
1.296062181e-08
1.197720336e-08
-1.456262254e-08
-1.273129409e-08
1.625583273e-08
1.421298326e-08
-1.963286773e-08
-1.584094336e-08
2.062739792e-08
1.641306535e-08
-2.169305603e-08
-1.522503433e-08
1.843283323e-08
1.270383409e-08
-1.623324632e-08
-9.854563524e-09
1.257178367e-08
7.425302265e-09
-1.21456659e-08
-5.54081294e-09
6.977408021e-09
3.833127023e-09
-9.53137096e-09
-2.523025368e-09
4.600741389e-09
1.558106442e-09
-5.091376618e-09
-1.115531063e-09
3.056610239e-09
1.52396828e-09
-1.277711153e-09
-1.970240604e-09
3.391776501e-10
2.51187904e-10
-4.296234943e-10
-4.982181895e-11
5.315674545e-11
1.140021531e-11
-6.1524456e-11
-4.67133399e-13
1.033980419e-10
-1.204959945e-11
-1.097497211e-10
2.493389635e-11
1.633117421e-10
-3.913529928e-11
-1.622557419e-10
5.609038749e-11
2.069026504e-10
-7.575657342e-11
-1.989012587e-10
9.783335289e-11
2.348551767e-10
-1.232721417e-10
-2.081170216e-10
1.554294239e-10
2.933643818e-10
-1.989074301e-10
-2.361504764e-10
2.590547081e-10
4.512995749e-10
-3.443903885e-10
-3.345712343e-10
4.63146811e-10
7.070580317e-10
-6.044938783e-10
-4.707636855e-10
7.140250966e-10
6.660030628e-10
-7.086264116e-10
-3.927802181e-10
5.708326997e-10
3.349927875e-10
-3.957209116e-10
-1.998452433e-10
2.603235869e-10
1.535614327e-10
-9.558861624e-11
1.23881841e-10
-1.726279324e-10
7.029565829e-09
7.359861706e-09
-7.343052025e-09
-1.126901537e-08
1.443529224e-08
1.496402104e-08
-1.374459682e-08
-1.744036407e-08
1.757566278e-08
1.880769387e-08
-1.432796424e-08
-1.948178871e-08
1.754585918e-08
1.945807026e-08
-1.296797084e-08
-1.839557576e-08
1.405999609e-08
1.622357739e-08
-1.030960915e-08
-1.347981098e-08
9.544005317e-09
1.100098435e-08
-7.574244337e-09
-9.408620515e-09
8.360157985e-09
8.910772227e-09
-7.803083877e-09
-9.407163726e-09
1.10309553e-08
1.072996757e-08
-1.089045747e-08
-1.288324945e-08
1.656116189e-08
1.552364913e-08
-1.833666957e-08
-1.835916796e-08
2.257192069e-08
2.059389425e-08
-2.456095805e-08
-2.085000605e-08
2.140566592e-08
1.840718455e-08
-2.099021558e-08
-1.430125547e-08
1.400930776e-08
1.043536505e-08
-1.342301014e-08
-8.083655848e-09
1.274003582e-08
7.604881312e-09
-1.540613271e-08
-8.863603296e-09
1.660608127e-08
1.057913422e-08
-2.518772487e-08
-9.412622633e-09
1.001615372e-08
7.053443505e-09
-1.604125397e-08
-4.380540525e-09
2.427993851e-09
1.837102191e-09
-5.341579694e-09
-1.073140173e-09
7.083024234e-10
4.116210201e-10
-1.43939551e-09
-7.78274028e-11
7.260424413e-11
1.895806517e-11
-8.942981665e-11
-7.782926352e-13
1.179609511e-10
-1.932407191e-11
-1.303898554e-10
3.127147236e-11
1.604130646e-10
-4.484367719e-11
-1.576002531e-10
6.15586357e-11
1.884329336e-10
-7.979250922e-11
-1.742634391e-10
9.83011299e-11
1.837352168e-10
-1.164521765e-10
-1.590938756e-10
1.353794059e-10
1.928760057e-10
-1.587891658e-10
-1.58469603e-10
1.904058936e-10
2.515760492e-10
-2.307797689e-10
-1.864061026e-10
2.741087935e-10
2.972308473e-10
-3.039151817e-10
-1.726182326e-10
2.964811035e-10
2.097976518e-10
-2.494017136e-10
-1.054750023e-10
1.872822262e-10
1.044925249e-10
-1.315274253e-10
-4.891009141e-11
8.975810075e-11
5.081898817e-11
-6.20622205e-11
-2.483285849e-11
4.822009904e-11
4.510456221e-11
-3.150167971e-11
-5.099937769e-11
7.341915062e-09
7.631381799e-09
-7.547848682e-09
-1.156575351e-08
1.228732182e-08
1.36389608e-08
-1.021326881e-08
-1.355738904e-08
1.085979254e-08
1.249495225e-08
-7.779644878e-09
-1.13950087e-08
9.032934199e-09
1.055910272e-08
-6.047378341e-09
-9.867766511e-09
7.562235442e-09
9.177073997e-09
-5.734288549e-09
-8.607510774e-09
6.94610953e-09
8.559734978e-09
-8.416544097e-09
-9.38921131e-09
9.442377048e-09
1.070007968e-08
-1.473963223e-08
-1.11698299e-08
1.07308876e-08
1.10432143e-08
-1.012523405e-08
-1.403300543e-08
1.939705889e-08
1.807301356e-08
-1.962830117e-08
-2.193853023e-08
2.568265739e-08
2.413643011e-08
-2.624354448e-08
-2.349526991e-08
2.157948015e-08
2.028407042e-08
-2.351425102e-08
-1.627766937e-08
1.530057687e-08
1.343908769e-08
-1.96116228e-08
-1.291102797e-08
2.012329873e-08
1.507302147e-08
-2.53547947e-08
-1.920738507e-08
3.05779595e-08
2.166678478e-08
-3.020089453e-08
-1.777755926e-08
1.942570453e-08
1.236743718e-08
-1.903553218e-08
-8.606313143e-09
1.004186114e-08
6.045025105e-09
-1.38300208e-08
-3.947028451e-09
2.748172044e-09
1.647959257e-09
-4.011190654e-09
-1.966675146e-10
1.243537427e-10
4.113800072e-11
-2.349547843e-10
9.462498144e-12
1.523267844e-10
-4.83437675e-11
-1.924101517e-10
4.647052649e-11
1.535611931e-10
-5.415713109e-11
-1.476762644e-10
6.814825762e-11
1.556178e-10
-8.100617488e-11
-1.319982196e-10
9.208335809e-11
1.333205156e-10
-1.031821767e-10
-1.072944682e-10
1.15270219e-10
1.306297926e-10
-1.299952472e-10
-1.077794012e-10
1.477479833e-10
1.323234888e-10
-1.564649054e-10
-8.786905131e-11
1.480028613e-10
9.830547082e-11
-1.293322407e-10
-6.063415179e-11
1.022882975e-10
5.328005851e-11
-7.394252441e-11
-2.768118614e-11
5.030924827e-11
2.211185741e-11
-3.33122181e-11
-1.043544783e-11
2.179113795e-11
1.191796161e-11
-1.479311661e-11
-6.286701757e-12
1.294702745e-11
2.298077386e-11
-1.546110355e-11
-1.783011789e-11
1.716640414e-09
-1.817385579e-09
-5.097954137e-09
8.594709797e-09
7.014873123e-09
-6.182232604e-09
-1.052136739e-08
7.949196052e-09
1.019168188e-08
-5.9029522e-09
-8.645653514e-09
5.427383713e-09
6.994615577e-09
-3.81534533e-09
-5.755808284e-09
4.074178578e-09
5.059204618e-09
-3.06050117e-09
-5.082807442e-09
5.186854561e-09
6.598092508e-09
-7.324102872e-09
-1.130479298e-08
1.360395951e-08
1.964460582e-08
-1.968192401e-08
-2.656285547e-08
2.056812928e-08
2.577127236e-08
-1.87476697e-08
-1.827474541e-08
8.948404292e-09
1.14790772e-08
-7.815148436e-09
-1.333220171e-08
1.924686791e-08
1.748891674e-08
-1.850958534e-08
-2.159754277e-08
2.633446201e-08
2.441559593e-08
-2.571197984e-08
-2.530760843e-08
2.591565922e-08
2.471335335e-08
-2.69011837e-08
-2.379961874e-08
2.47975097e-08
2.368496317e-08
-2.775934228e-08
-2.474123909e-08
2.882289984e-08
2.617232113e-08
-2.970472218e-08
-2.605119783e-08
2.687257913e-08
2.268438364e-08
-2.589618951e-08
-1.687587731e-08
1.735314848e-08
1.159848116e-08
-1.810037855e-08
-8.032559935e-09
1.441346283e-08
7.026154249e-09
-1.237313183e-08
-4.595102614e-09
4.981005627e-09
2.374539752e-09
-6.403829099e-09
-1.067430254e-09
6.793646469e-10
2.911793182e-10
-2.703968772e-09
-3.955025001e-12
2.510257931e-10
-2.304121597e-10
-2.687731348e-10
9.40526915e-11
1.382403905e-10
-6.946798981e-11
-1.214912541e-10
7.177847153e-11
1.033345273e-10
-7.026857586e-11
-7.064625343e-11
6.863101001e-11
8.360793253e-11
-7.593059581e-11
-6.535693759e-11
9.058662543e-11
8.612459766e-11
-9.98419957e-11
-4.572702395e-11
8.692311094e-11
6.026507053e-11
-6.924519415e-11
-5.353137432e-11
6.655842605e-11
3.697096613e-11
-5.986682495e-11
-1.574607838e-11
3.910833393e-11
1.359541537e-11
-2.488337414e-11
-5.060971823e-12
1.601108744e-11
4.962170691e-12
-1.000035789e-11
-1.605057258e-12
5.58190266e-12
3.698557392e-12
-3.132210068e-12
-4.221538578e-13
3.843888908e-12
6.300759946e-12
-9.69137024e-13
1.341247349e-11
-7.216786569e-12
1.896502006e-09
-1.870060608e-09
-5.92896674e-09
7.76677103e-09
5.132507838e-09
-3.988617863e-09
-7.690101601e-09
4.26037183e-09
6.516457173e-09
-3.029154062e-09
-5.192814158e-09
2.7650404e-09
4.17543616e-09
-2.082355099e-09
-3.682419696e-09
3.000591155e-09
4.646611218e-09
-3.308935468e-09
-1.097683634e-08
1.187034758e-08
2.693455129e-08
-1.137128552e-08
-4.168443727e-08
1.839394523e-08
4.195079507e-08
-1.07546247e-08
-3.120127517e-08
1.140318111e-08
1.887366427e-08
-4.903060749e-09
-1.077326799e-08
7.398767413e-09
8.300948795e-09
-7.071679027e-09
-1.017185156e-08
1.744654329e-08
1.563513411e-08
-1.590750487e-08
-1.952513417e-08
2.413972614e-08
2.209153893e-08
-2.180190269e-08
-2.320428197e-08
2.535664174e-08
2.355894988e-08
-2.24764066e-08
-2.404930871e-08
2.675583733e-08
2.519595723e-08
-2.392148528e-08
-2.68833846e-08
2.946065312e-08
2.847748516e-08
-3.017592836e-08
-2.92011162e-08
3.047938948e-08
2.822024775e-08
-3.816266444e-08
-2.429158867e-08
2.318093562e-08
1.656254214e-08
-2.907023678e-08
-7.27832185e-09
1.030814255e-08
5.706987509e-09
-1.121310171e-08
-4.59269123e-09
9.487253868e-09
4.449751493e-09
-1.500682084e-08
-5.567767443e-09
9.839009217e-09
4.527360796e-09
-1.965230687e-08
-1.926102663e-09
1.234100313e-10
1.514072436e-11
-1.387555952e-10
3.216660465e-11
9.36419011e-11
-3.595660765e-11
-5.73347275e-11
3.155426148e-11
3.833987094e-11
-2.653831397e-11
-2.13410615e-11
2.698923042e-11
4.136008289e-11
-3.854150119e-11
-2.869025149e-11
5.301238942e-11
3.106435536e-11
-6.636839018e-11
-2.073889643e-11
7.578454168e-11
4.024895098e-11
-8.656696134e-11
-2.36076294e-11
8.210054389e-11
-9.537476151e-13
-8.801122151e-11
2.696349501e-12
8.778279201e-11
-5.169947663e-13
-7.42396841e-11
1.309825763e-11
6.17269712e-11
-7.322755291e-13
-5.133404826e-11
8.774735673e-12
4.280560427e-11
-8.077518082e-13
-3.571366182e-11
5.702111881e-12
3.003034682e-11
-1.88898697e-12
4.156085448e-12
2.321069958e-11
-2.591622572e-11
1.726025198e-09
-1.442743853e-09
-4.779578307e-09
5.177996561e-09
2.900785745e-09
-1.981639595e-09
-4.666023893e-09
2.14621369e-09
3.911105673e-09
-1.526126306e-09
-3.275377283e-09
1.577774069e-09
2.824317648e-09
-1.255647601e-09
-2.518140168e-09
1.481511849e-09
2.302676668e-09
-1.203865123e-09
-2.137575697e-09
1.860225616e-09
2.058161444e-09
-1.294211761e-09
-2.307940066e-09
2.361140156e-09
3.803293072e-09
-8.399317292e-10
-7.775247757e-09
3.008185221e-10
1.114690552e-08
5.354741473e-09
-9.587793705e-09
5.317430448e-09
6.920569867e-09
-4.584390655e-09
-8.951864429e-09
1.384525119e-08
1.258983551e-08
-1.149542393e-08
-1.582633309e-08
1.917803437e-08
1.782979682e-08
-1.654837161e-08
-1.855009171e-08
2.001209418e-08
1.863675874e-08
-1.812901e-08
-1.895525041e-08
2.215401376e-08
2.044839159e-08
-2.113362548e-08
-2.434774054e-08
3.190654771e-08
3.14360149e-08
-3.148455018e-08
-3.876340552e-08
4.016420559e-08
3.909721831e-08
-3.302076391e-08
-3.032618463e-08
2.88382928e-08
1.93924823e-08
-2.287731122e-08
-1.271251829e-08
1.681301208e-08
1.102014698e-08
-2.451198105e-08
-1.178139731e-08
2.018823887e-08
1.244346726e-08
-2.018046613e-08
-1.316755885e-08
2.088140426e-08
9.726116056e-09
-1.415638317e-08
-3.755054809e-09
2.323544072e-10
5.298828962e-10
-1.533130203e-09
-1.146569857e-10
3.845074841e-11
5.205569718e-11
-1.312651816e-11
-2.310576343e-11
2.192726916e-11
1.342214841e-11
-8.971576715e-12
-5.934017895e-12
1.945443426e-11
-1.890508038e-11
-3.019794389e-11
4.415598413e-11
1.849364871e-11
-6.185249929e-11
-1.686122239e-11
8.319676632e-11
2.572939195e-11
-1.08883658e-10
-1.77723601e-11
1.273322925e-10
2.22677054e-11
-1.408769394e-10
-1.519239117e-11
1.482785965e-10
-3.259117436e-11
-1.599330922e-10
3.684960352e-11
1.590645416e-10
-2.282425963e-11
-1.506623663e-10
3.246467747e-11
1.380483498e-10
-1.507933139e-11
-1.230361752e-10
2.293592583e-11
1.067984829e-10
-1.003245984e-11
1.466749631e-11
7.456463456e-11
-9.030469932e-11
1.07259751e-09
-6.645029778e-10
-3.084069362e-09
3.051752846e-09
1.297544517e-09
-8.539798702e-10
-2.768589852e-09
1.095492499e-09
2.483900933e-09
-8.099994243e-10
-2.293408147e-09
1.021704124e-09
2.203437632e-09
-8.581897864e-10
-2.193405703e-09
1.100138756e-09
2.232437141e-09
-1.033201989e-09
-2.280413976e-09
1.247429747e-09
2.298201212e-09
-1.178122754e-09
-2.269711689e-09
1.313475695e-09
2.233683508e-09
-1.203961034e-09
-2.33470745e-09
4.145762514e-10
2.793158681e-09
-1.363714713e-09
-3.482344952e-09
3.824550732e-09
3.699332497e-09
-2.626637765e-09
-5.596031476e-09
9.002882753e-09
8.216968932e-09
-6.57704281e-09
-1.090825784e-08
1.391245894e-08
1.301597599e-08
-1.130518034e-08
-1.438457299e-08
1.635597846e-08
1.529791595e-08
-1.453444466e-08
-1.621975259e-08
1.93180949e-08
1.786112895e-08
-1.680793738e-08
-2.144360997e-08
2.621363674e-08
2.75452409e-08
-1.851787039e-08
-3.260036082e-08
2.446703958e-08
3.085525103e-08
-2.036231458e-08
-2.352288379e-08
1.872766692e-08
1.762003724e-08
-2.099915075e-08
-1.820093228e-08
2.64828896e-08
1.83810623e-08
-2.171250851e-08
-1.631673065e-08
1.599916494e-08
1.176490117e-08
-1.254068093e-08
-7.4160805e-09
8.109780887e-09
4.108154058e-09
-5.39818846e-09
-2.123074514e-09
5.864315935e-09
1.460917272e-09
-8.813557126e-09
-4.904691346e-10
2.356405203e-12
1.68382412e-11
3.658568969e-13
-4.458504909e-12
3.873071658e-12
1.213798453e-12
-3.768830331e-12
1.739514151e-11
2.786647937e-11
-6.447050343e-11
2.288134064e-11
7.268329344e-11
3.81325012e-12
-7.894518971e-11
2.887536574e-11
8.314556638e-11
-1.536826734e-12
-8.466575246e-11
2.16834047e-11
9.06967285e-11
-2.112485604e-12
-9.094054753e-11
2.214477254e-11
8.158543582e-11
-2.558258937e-11
-8.415280737e-11
1.600153892e-11
8.990006183e-11
-2.836215965e-11
-9.331809284e-11
1.66979788e-11
9.304356931e-11
-2.184259916e-11
-9.141365108e-11
1.681039836e-11
9.301368135e-11
-1.540090117e-11
2.184581794e-11
1.219436048e-10
-1.023703897e-10
1.359358162e-10
-2.602400337e-09
2.157535313e-09
6.186913117e-10
-5.546898388e-10
-2.114605029e-09
6.602435959e-10
2.074118262e-09
-6.736116938e-10
-2.109358182e-09
7.860600899e-10
2.227108749e-09
-8.261077058e-10
-2.36718669e-09
9.780765925e-10
2.44143683e-09
-8.796849577e-10
-2.390368757e-09
1.024603044e-09
2.216406102e-09
-7.652504618e-10
-1.97114322e-09
9.368033262e-10
1.72023151e-09
-6.308059585e-10
-1.519939395e-09
9.548571456e-10
1.417820924e-09
-6.178401063e-10
-1.474787306e-09
1.656158636e-09
1.803737461e-09
-9.74798932e-10
-2.590983373e-09
4.413931577e-09
3.99021746e-09
-2.681515898e-09
-5.888170114e-09
8.765125771e-09
7.928967085e-09
-6.392580026e-09
-9.815275487e-09
1.259996195e-08
1.142178565e-08
-1.044975243e-08
-1.269949463e-08
1.528284605e-08
1.365182502e-08
-1.341946334e-08
-1.442505972e-08
1.719136012e-08
1.534811708e-08
-1.571379122e-08
-1.692981347e-08
1.97099452e-08
1.966038947e-08
-1.906054328e-08
-2.299579536e-08
2.193306982e-08
2.400897803e-08
-2.254830419e-08
-2.083797802e-08
2.086257053e-08
1.915516339e-08
-2.160306214e-08
-1.533671434e-08
1.19745956e-08
1.067216668e-08
-1.44918785e-08
-6.621583739e-09
5.261498998e-09
3.789236673e-09
-7.45896983e-09
-2.084166007e-09
8.02591616e-09
1.2275609e-09
-7.059571727e-09
2.809534297e-10
7.76651487e-10
9.276430959e-10
-1.610859844e-09
-4.63837227e-10
5.038005176e-11
9.013415962e-11
-1.235564395e-10
-1.502287384e-11
-8.730953415e-12
-1.467855188e-12
-4.096337287e-12
2.244378584e-11
-3.443562546e-11
-4.221442495e-11
2.855097373e-11
7.0233024e-11
-4.134755617e-11
-8.944801136e-11
3.20262193e-11
8.076966242e-11
-2.447356264e-11
-7.596035892e-11
-3.1501195e-12
8.078451253e-11
-1.451252052e-11
-1.082032692e-10
-4.067849131e-12
1.318783258e-10
-1.834189143e-11
-1.252719637e-10
1.496941265e-11
1.044492515e-10
-2.770486567e-11
-9.606638839e-11
2.638809389e-11
1.096355302e-10
-4.288739292e-11
8.66703109e-12
2.023695413e-10
-1.428846288e-10
3.396841324e-09
6.054405972e-10
-9.041747409e-10
-4.244853545e-09
8.770887343e-10
4.533353956e-09
-1.086819383e-09
-4.303947194e-09
8.748679287e-10
3.724869307e-09
-7.440769326e-10
-3.002267758e-09
6.803666316e-10
2.310718825e-09
-4.379887654e-10
-1.745593883e-09
4.841501149e-10
1.329192448e-09
-2.810738648e-10
-1.044976198e-09
3.807866175e-10
8.659068543e-10
-2.293989423e-10
-7.680798709e-10
3.87942304e-10
7.347256625e-10
-2.547241421e-10
-7.582438883e-10
5.70859126e-10
8.467244307e-10
-3.629757557e-10
-1.043954924e-09
1.475045939e-09
1.467518342e-09
-7.743586423e-10
-2.305820941e-09
4.339051579e-09
3.642261985e-09
-2.726573314e-09
-5.283607687e-09
8.214805735e-09
6.950965345e-09
-6.102336908e-09
-8.456654602e-09
1.129849269e-08
9.714259111e-09
-9.106297885e-09
-1.085402231e-08
1.40500215e-08
1.212515367e-08
-1.220652441e-08
-1.372701698e-08
1.81922043e-08
1.567948037e-08
-1.707036804e-08
-1.778768417e-08
2.261427801e-08
1.9693529e-08
-2.26064727e-08
-2.097122594e-08
2.363351789e-08
2.125074198e-08
-2.557195178e-08
-2.034507404e-08
1.93461704e-08