/*--------------------------------*- C++ -*----------------------------------*\
| =========                 |                                                 |
| \\      /  F ield         | OpenFOAM: The Open Source CFD Toolbox           |
|  \\    /   O peration     | Version:  2.1.x                                 |
|   \\  /    A nd           | Web:      www.OpenFOAM.org                      |
|    \\/     M anipulation  |                                                 |
\*---------------------------------------------------------------------------*/
FoamFile
{
    version     2.0;
    format      ascii;
    class       volVectorField;
    location    "1.1";
    object      Uf;
}
// * * * * * * * * * * * * * * * * * * * * * * * * * * * * * * * * * * * * * //

dimensions      [0 1 -1 0 0 0 0];

internalField   nonuniform List<vector> 
2828
(
(-0.6718863586 0 -0.3192362814)
(-1.191275038 0 -0.3803767913)
(-1.850243244 0 -0.3540072479)
(-0.3372606425 0 -0.04647582992)
(-0.424888241 0 0.02138986409)
(-0.8939773236 0 -0.4711888876)
(-0.8182898547 0 -0.3598386406)
(-0.7898196494 0 -0.2951852636)
(-0.636183012 0 -0.282063004)
(-0.6372371714 0 -0.2996264489)
(-1.57629929 0 -0.4619121991)
(-2.223230956 0 -0.4148565939)
(-0.4078211139 0 -0.04665261585)
(-0.3879296545 0 0.0106348279)
(-0.6473298449 0 0.09190355411)
(-0.4853801638 0 0.07399536006)
(-0.3190059052 0 0.0782477927)
(-1.139411935 0 -0.7215940632)
(-1.06362675 0 -0.5738680013)
(-0.8781041796 0 -0.4622541453)
(-0.7520414427 0 -0.3972892301)
(-0.7138416593 0 -0.3166504088)
(-0.6439470859 0 -0.2746575158)
(-0.6808043214 0 -0.2836785399)
(-1.605355214 0 -0.4759309577)
(-2.178890192 0 -0.4185420227)
(-0.5858288619 0 -0.03265930304)
(-0.3978348171 0 0.0272123547)
(-0.7037581819 0 0.1061740779)
(-0.4758900751 0 0.07317474959)
(-0.3536978726 0 0.08833028928)
(-0.2933437515 0 0.1171511195)
(-0.2599541909 0 0.140663979)
(-1.099640728 0 -0.8933278953)
(-1.027905963 0 -0.7475614719)
(-0.968652159 0 -0.5893797589)
(-0.8733467543 0 -0.4856308359)
(-0.7179801929 0 -0.4332848128)
(-0.6549289789 0 -0.3326589544)
(-0.625620551 0 -0.2646669651)
(-0.6635588088 0 -0.2492976111)
(-1.373073812 0 -0.43690877)
(-1.918456434 0 -0.3998505154)
(-1.056310246 0 0.1534747906)
(-0.4106821751 0 0.05252034891)
(-0.7673884724 0 0.1214767817)
(-0.4949697137 0 0.07451062351)
(-0.5046562507 0 0.116680732)
(-0.3617005482 0 0.1404848658)
(-0.2570796855 0 0.1537072784)
(-0.2419607044 0 0.1693805068)
(-0.2352331667 0 0.178156687)
(-1.051249076 0 -0.930444084)
(-1.061080837 0 -0.9153747192)
(-1.058165159 0 -0.8620974027)
(-1.022909422 0 -0.7590303503)
(-0.9295496412 0 -0.6355469124)
(-0.7725824149 0 -0.5327666406)
(-0.6534490097 0 -0.3922341537)
(-0.603860914 0 -0.2842464163)
(-0.5999231354 0 -0.2229716122)
(-0.9466222757 0 -0.3372820276)
(-1.636033508 0 -0.4039674912)
(-1.237137825 0 0.250286874)
(-0.451950805 0 0.06827099053)
(-0.859778386 0 0.1419708316)
(-0.5511081028 0 0.08555201547)
(-0.5977744284 0 0.1311598796)
(-0.5197622344 0 0.1657575684)
(-0.2876490711 0 0.1592165325)
(-0.243314732 0 0.1761592231)
(-0.2330724713 0 0.1837126852)
(-0.2132627415 0 0.1776225197)
(-1.010443061 0 -0.9065905606)
(-1.075647 0 -0.9570293142)
(-1.142684942 0 -0.9976107566)
(-1.174708846 0 -0.99049119)
(-1.150021276 0 -0.9233095481)
(-1.06130824 0 -0.8130205996)
(-0.923097137 0 -0.6827504007)
(-0.7681517386 0 -0.5292964048)
(-0.6411472874 0 -0.3730853904)
(-0.5754505098 0 -0.2559374672)
(-0.5291245513 0 -0.2014363808)
(-0.546356844 0 -0.2290970706)
(-1.164613361 0 -0.1957856031)
(-0.5384032695 0 0.02150264488)
(-1.043859555 0 0.1812940078)
(-0.6465266709 0 0.1043636037)
(-0.6275293209 0 0.1435557416)
(-0.5760900262 0 0.1733490478)
(-0.3937533224 0 0.1791815612)
(-0.2459412895 0 0.1757012601)
(-0.2251315267 0 0.1840120879)
(-0.2078403738 0 0.170233837)
(-0.2837718445 0 0.1850120712)
(-0.9561759815 0 -0.876806339)
(-1.036769737 0 -0.9442086587)
(-1.142996639 0 -1.033622148)
(-1.233677529 0 -1.097607814)
(-1.278139684 0 -1.103018309)
(-1.264313278 0 -1.0445552)
(-1.195920608 0 -0.9422780511)
(-1.082036833 0 -0.8164775538)
(-0.930603958 0 -0.6704372562)
(-0.7562168392 0 -0.5038262064)
(-0.604813038 0 -0.3432475826)
(-0.5159834392 0 -0.2489244259)
(-0.4346469419 0 -0.2209983855)
(-1.039239651 0 -0.2409978201)
(-0.6553787834 0 0.01990014528)
(-1.35923521 0 0.2565427023)
(-0.8051624554 0 0.1374436113)
(-0.683331819 0 0.1662060883)
(-0.5771643709 0 0.1836318506)
(-0.4630558228 0 0.2042712108)
(-0.3154641411 0 0.2031224597)
(-0.2286362399 0 0.1885557602)
(-0.2580285678 0 0.1735289117)
(-0.3434271187 0 0.2012095172)
(-0.8668047844 0 -0.8158976526)
(-0.9443922852 0 -0.8824272034)
(-1.066074926 0 -0.9946122523)
(-1.197620945 0 -1.114139941)
(-1.296385528 0 -1.189033555)
(-1.340485551 0 -1.193246491)
(-1.328192971 0 -1.131086022)
(-1.277042468 0 -1.031272485)
(-1.189876473 0 -0.9098433943)
(-1.062563246 0 -0.7720011331)
(-0.9007553786 0 -0.624239016)
(-0.7090505075 0 -0.4691079898)
(-0.5267815431 0 -0.3211940645)
(-0.4492121895 0 -0.2744122092)
(-1.460543127 0 -1.037914222)
(-0.5690429978 0 0.1121864058)
(-1.042636168 0 -0.1219645589)
(-0.995059504 0 0.1843967666)
(-0.7659179706 0 0.1996935687)
(-0.5884220886 0 0.2050612438)
(-0.4832821701 0 0.230523963)
(-0.3943362127 0 0.2568873709)
(-0.3266291795 0 0.2642860827)
(-0.3293505761 0 0.2516264849)
(-0.3732347702 0 0.2290907066)
(-0.402771327 0 0.2376085508)
(-0.8212393554 0 -0.7852603013)
(-0.9395268913 0 -0.9004387854)
(-1.090673624 0 -1.051395504)
(-1.231462219 0 -1.189532708)
(-1.325241782 0 -1.262467179)
(-1.353835571 0 -1.249841568)
(-1.328891188 0 -1.177322667)
(-1.283834107 0 -1.078107478)
(-1.222179113 0 -0.9571085333)
(-1.150804836 0 -0.8380713347)
(-1.075427292 0 -0.7317152396)
(-0.9125501522 0 -0.5992742385)
(-0.6774867745 0 -0.4971011621)
(-1.886104125 0 -1.992997735)
(-3.405455633 0 -2.930244994)
(-0.5449642397 0 -0.1963435258)
(-1.374586772 0 -0.2150901673)
(-1.184380478 0 0.2385272262)
(-0.8589904882 0 0.241529917)
(-0.6262973078 0 0.2410662252)
(-0.484579874 0 0.2585716432)
(-0.4137626621 0 0.2955194503)
(-0.3727045158 0 0.327799882)
(-0.3658248636 0 0.3357973266)
(-0.3800762092 0 0.2937973784)
(-0.4085231486 0 0.2557623623)
(-0.3929722353 0 0.2698901482)
(-0.6805405918 0 -0.6670930264)
(-0.792322638 0 -0.7791202905)
(-0.9441746611 0 -0.9409474995)
(-1.109812431 0 -1.12332237)
(-1.244603897 0 -1.268643717)
(-1.319913846 0 -1.319699123)
(-1.321846935 0 -1.267493901)
(-1.275690164 0 -1.177030033)
(-1.229246711 0 -1.087054033)
(-1.221156643 0 -0.9990712141)
(-1.290053728 0 -0.9500723058)
(-1.351790449 0 -0.8745211248)
(-1.210844649 0 -0.7139480835)
(-1.232713713 0 -1.425129141)
(-2.63281025 0 -3.613689834)
(-3.218050655 0 -3.518527668)
(-1.312653382 0 -0.518573788)
(-1.51721022 0 -0.2904604285)
(-1.353117012 0 0.2927236927)
(-0.9571372302 0 0.293385114)
(-0.6710595228 0 0.2854503176)
(-0.494334765 0 0.2925169465)
(-0.3999816906 0 0.3172543313)
(-0.3621571107 0 0.3483229748)
(-0.3564375945 0 0.3607595364)
(-0.3700817247 0 0.3259015042)
(-0.4130128975 0 0.2830027635)
(-0.3874554609 0 0.2895438024)
(-0.6145385047 0 -0.6137294265)
(-0.7779261894 0 -0.803089048)
(-0.9479224285 0 -1.001065124)
(-1.102951249 0 -1.1961585)
(-1.209871374 0 -1.332661908)
(-1.249945155 0 -1.341373312)
(-1.226494438 0 -1.232535938)
(-1.184348688 0 -1.13166757)
(-1.177360911 0 -1.090471204)
(-1.275801776 0 -1.108556428)
(-1.458114997 0 -1.131354263)
(-1.583406818 0 -1.019156966)
(-1.446239289 0 -0.755046505)
(-0.892413308 0 -0.5625900198)
(-0.7469098048 0 -0.490205086)
(-0.4997603834 0 -0.9816720108)
(-0.5982513971 0 -0.252879495)
(-1.519304055 0 -0.3763862627)
(-1.493243753 0 0.3469094147)
(-1.044057459 0 0.354887725)
(-0.7071233208 0 0.3328152314)
(-0.5009013847 0 0.3273062569)
(-0.3827743282 0 0.339376213)
(-0.3303504279 0 0.3466755647)
(-0.3270575892 0 0.342893171)
(-0.3688750429 0 0.3143071965)
(-0.4530892913 0 0.3294457868)
(-0.3998854872 0 0.3310851362)
(-0.578016187 0 -0.6199576327)
(-0.767165014 0 -0.8517803616)
(-0.9219492807 0 -1.045586968)
(-1.037493139 0 -1.21612093)
(-1.09138285 0 -1.320177795)
(-1.081364917 0 -1.282723962)
(-1.062660075 0 -1.143173571)
(-1.084323609 0 -1.066392944)
(-1.164002241 0 -1.110003889)
(-1.312518037 0 -1.22294254)
(-1.472316868 0 -1.278455505)
(-1.544038789 0 -1.112900108)
(-1.424207895 0 -0.7814944762)
(-1.198640044 0 -0.7184154819)
(-1.226779582 0 -0.7299110823)
(-0.7352026166 0 -0.4211466205)
(-0.5735139515 0 -0.2841555128)
(-1.184250967 0 -0.4070407114)
(-1.599438693 0 0.4054364805)
(-1.102387542 0 0.4270011245)
(-0.7246863568 0 0.3833047015)
(-0.4949439287 0 0.3652516262)
(-0.3602865889 0 0.3657967637)
(-0.3072108308 0 0.3456863514)
(-0.3390532163 0 0.3261105756)
(-0.5088539486 0 0.3765824713)
(-0.5600558142 0 0.4657058989)
(-0.4219200012 0 0.4075957682)
(-0.2980924668 0 0.3355475262)
(-0.5573638342 0 -0.6631427969)
(-0.7371130366 0 -0.9013235212)
(-0.8484061993 0 -1.03969645)
(-0.9049468211 0 -1.123879066)
(-0.9110142736 0 -1.171013228)
(-0.9148882735 0 -1.165203962)
(-1.068231824 0 -1.17178166)
(-1.005282687 0 -1.004333782)
(-1.147363555 0 -1.104211158)
(-1.277829408 0 -1.245975908)
(-1.353484889 0 -1.308262067)
(-1.348617295 0 -1.178097497)
(-1.387749238 0 -1.006149858)
(-1.47329748 0 -1.011138711)
(-1.597259554 0 -0.9018121099)
(-1.162467019 0 -0.5637187791)
(-0.9261803116 0 -0.4160722692)
(-0.718061097 0 -0.2410269283)
(-1.645809796 0 0.4764605409)
(-1.111539329 0 0.513072509)
(-0.7138663345 0 0.4357137212)
(-0.4678984722 0 0.4118316904)
(-0.3310842407 0 0.3981425481)
(-0.3438723127 0 0.352802948)
(-0.6836846396 0 0.4935129626)
(-0.8713864209 0 0.7524700253)
(-0.6204103855 0 0.6519953144)
(-0.4300632836 0 0.5225065789)
(-0.2685068705 0 0.3746754917)
(-0.3387754273 0 -0.4557052932)
(-0.5447919474 0 -0.7469654729)
(-0.6770439866 0 -0.9378734289)
(-0.7328109739 0 -0.9927085675)
(-0.7419493214 0 -0.9640133557)
(-0.8050188408 0 -1.103295288)
(-1.254831888 0 -1.799786955)
(-1.80775349 0 -1.970671838)
(-0.9596134347 0 -0.9058256475)
(-1.124227832 0 -1.059422838)
(-1.248363069 0 -1.19169958)
(-1.302732768 0 -1.257176124)
(-1.317008979 0 -1.253443286)
(-1.406887302 0 -1.288043994)
(-1.560616418 0 -1.308799719)
(-1.665507161 0 -1.000251427)
(-1.398312302 0 -0.5977421445)
(-1.121622498 0 -0.416942362)
(-0.6774259058 0 -0.3785875341)
(-1.545463573 0 0.5629796913)
(-1.015259547 0 0.5814823959)
(-0.6568673214 0 0.4693822987)
(-0.38732226 0 0.435489529)
(-0.2946655673 0 0.4137367929)
(-1.007267071 0 0.7169123772)
(-1.227821492 0 1.143212189)
(-0.903604081 0 1.227142502)
(-0.3345614003 0 0.6318769416)
(-0.07425272522 0 0.2638562999)
(-0.05595247165 0 0.2136554623)
(-0.3406543497 0 -0.5430236583)
(-0.4954553573 0 -0.8030040094)
(-0.5800658619 0 -0.936891025)
(-0.5972351529 0 -0.9380347308)
(-0.6359214209 0 -1.082318116)
(-1.054027644 0 -2.691752326)
(-1.528988689 0 -3.633153407)
(-1.804538405 0 -2.859773677)
(-0.9657588959 0 -0.4530592257)
(-1.103193486 0 -1.035828668)
(-1.24990114 0 -1.173926823)
(-1.329672487 0 -1.241090155)
(-1.359138992 0 -1.280897711)
(-1.405805959 0 -1.389112647)
(-1.636340653 0 -1.495179238)
(-1.913529815 0 -1.179776676)
(-1.339539563 0 -0.7220496659)
(-1.21988867 0 -0.4493842177)
(-1.109103217 0 -0.5623714965)
(-0.7960345656 0 0.2129654263)
(-0.6074250425 0 0.2680488328)
(-0.501638695 0 0.4007779502)
(-0.3090471529 0 0.3735664675)
(-0.2350987734 0 0.5253989062)
(-0.1455091273 0 0.5533987693)
(0.2324739398 0 0.949935111)
(0.5462180303 0 2.670329588)
(0.4309427513 0 2.374188583)
(0.3709544743 0 2.066713651)
(0.3220643936 0 1.851654738)
(-0.3162090444 0 -0.6116687285)
(-0.4095161797 0 -0.8026509805)
(-0.4575862675 0 -0.8823876184)
(-0.4661689498 0 -0.8696259782)
(-0.4674525664 0 -0.8241476361)
(-0.468143755 0 -0.7750740091)
(-0.006313369883 0 -0.9956123242)
(1.09844913 0 -1.592452884)
(-0.8288309137 0 -0.8212189891)
(-1.04301024 0 -1.011114179)
(-1.198411335 0 -1.163343386)
(-1.297290784 0 -1.232819024)
(-1.367323858 0 -1.278811181)
(-1.501901269 0 -1.539118419)
(-1.867151437 0 -1.821052241)
(-2.069336771 0 -1.152620797)
(-1.365149237 0 -1.090291746)
(-1.590764214 0 -0.8501829656)
(-1.729547772 0 -0.7415772899)
(-0.196361291 0 -0.3242920393)
(-0.1952738558 0 -0.2857639629)
(-0.2146952383 0 -0.1098744202)
(-0.3625232871 0 0.688539785)
(-0.09234508879 0 0.8184898874)
(-0.1325051407 0 0.7302851178)
(-0.1363782992 0 0.7012054835)
(0.3832990693 0 1.206454915)
(0.370630075 0 1.211287759)
(0.3010113379 0 1.115325262)
(0.2426151702 0 1.015315913)
(-0.2609554768 0 -0.6470508437)
(-0.3025829225 0 -0.7559463437)
(-0.332222175 0 -0.8009485223)
(-0.353698681 0 -0.8049043246)
(-0.3750335425 0 -0.7923607255)
(-0.4071885459 0 -0.7700166856)
(-0.4552743072 0 -0.7308347675)
(-0.5368264655 0 -0.6912253785)
(-0.7132292772 0 -0.744657343)
(-0.9303106295 0 -0.9260515203)
(-1.096118736 0 -1.088191228)
(-1.217674368 0 -1.177361714)
(-1.317340463 0 -1.260047287)
(-1.380486444 0 -1.625908943)
(-1.291126522 0 -1.913834976)
(-1.204058664 0 -1.122987123)
(-1.54114179 0 -1.339829855)
(-1.801023154 0 -1.273375811)
(-1.922020983 0 -0.8491124321)
(-0.9605100065 0 0.06870370605)
(0.04488057476 0 -0.4018878103)
(-0.02078255456 0 0.31994758)
(-0.04871516186 0 0.3033126894)
(0.1622221292 0 0.4787609835)
(0.1546141483 0 0.6275870915)
(0.1488416872 0 0.3307335507)
(0.1499914536 0 0.5965168774)
(0.1429670314 0 0.6086779594)
(0.1270024198 0 0.5737459704)
(0.1124052354 0 0.5383034116)
(-0.175374746 0 -0.6584526892)
(-0.1941044979 0 -0.7138513215)
(-0.2170779242 0 -0.7639758234)
(-0.2589401467 0 -0.7985305455)
(-0.3167653722 0 -0.824260022)
(-0.3731973487 0 -0.8175378521)
(-0.4213868135 0 -0.7733697532)
(-0.4720735497 0 -0.7032491735)
(-0.5753603965 0 -0.6590496603)
(-0.7692855844 0 -0.7726430941)
(-0.9546136427 0 -0.9379911982)
(-1.112881304 0 -1.062385259)
(-1.243061864 0 -1.145256961)
(-1.344310243 0 -1.203974073)
(-1.425067192 0 -1.266729282)
(-1.487071119 0 -1.352750532)
(-1.545394476 0 -1.453385141)
(-1.51790502 0 -1.392493237)
(-1.416840592 0 -0.99251359)
(-1.330387723 0 0.1979549015)
(-0.4021662267 0 -0.4166830325)
(-0.2766241143 0 -0.2194143419)
(0.09742615733 0 0.3235854267)
(0.1284995488 0 0.3067684179)
(0.09163582715 0 0.224580171)
(0.04420933748 0 0.1567676192)
(0.02671506922 0 0.1337622569)
(0.03019428197 0 0.1227326671)
(0.04139599635 0 0.1402612401)
(0.04577712703 0 0.1787468062)
(-0.129000642 0 -0.8838218374)
(-0.1897113669 0 -1.01873717)
(-0.2460723833 0 -1.049850016)
(-0.2944215445 0 -1.009528309)
(-0.3431397503 0 -0.9561011774)
(-0.4019697052 0 -0.9156554514)
(-0.4640611027 0 -0.8574719399)
(-0.5060242326 0 -0.7237785751)
(-0.5825168455 0 -0.6097820396)
(-0.767331258 0 -0.7243906275)
(-0.9681223106 0 -0.8948255818)
(-1.135728283 0 -1.034591639)
(-1.274880256 0 -1.142550719)
(-1.407582296 0 -1.242503549)
(-1.517627713 0 -1.33745914)
(-1.56109676 0 -1.40214362)
(-1.503051285 0 -1.386020041)
(-1.376626679 0 -1.235571521)
(-1.285497436 0 -0.8143152769)
(-0.817588644 0 -0.6999274285)
(-0.3976962316 0 -0.3522670134)
(-0.3252145601 0 -0.2781853483)
(-0.184137799 0 0.5130664165)
(-0.05818559542 0 0.2758571618)
(-0.257264696 0 0.505116918)
(-0.05921932889 0 0.2258886974)
(0.0332625074 0 0.09524401923)
(0.03065157545 0 0.08574905492)
(0.03637204067 0 0.0813421252)
(-0.1826626779 0 -1.441689304)
(-0.2147228913 0 -1.413833334)
(-0.2269767245 0 -1.278704786)
(-0.251161833 0 -1.18982329)
(-0.307750586 0 -1.209736617)
(-0.3972839894 0 -1.275439599)
(-0.5114036985 0 -1.310150136)
(-0.6080498035 0 -1.197080843)
(-0.5513448393 0 -0.7652133669)
(-0.5573211175 0 -0.5185523963)
(-0.773430684 0 -0.6958078826)
(-0.978437297 0 -0.88359168)
(-1.166527426 0 -1.043997441)
(-1.363559097 0 -1.200562306)
(-1.546038713 0 -1.346360079)
(-1.677493667 0 -1.453947213)
(-1.732331636 0 -1.498895166)
(-1.694296697 0 -1.463263449)
(-1.536728816 0 -1.322947922)
(-1.209826972 0 -1.042088114)
(-0.699004436 0 -0.6075691982)
(-0.3655756241 0 -0.3398740038)
(0.3131000789 0 0.5844552964)
(0.2238258707 0 0.4256779214)
(0.3556075315 0 0.9935861623)
(0.261166859 0 0.8011745795)
(0.1988545923 0 0.6383753878)
(0.158525034 0 0.5270315458)
(0.131963745 0 0.4546624611)
(-0.1576029626 0 -1.596181909)
(-0.1606057182 0 -1.455987426)
(-0.1641012355 0 -1.328364702)
(-0.1889680896 0 -1.35715145)
(-0.2381748239 0 -1.481594557)
(-0.314528802 0 -1.655288086)
(-0.4241515896 0 -1.846496649)
(-0.5766909381 0 -1.960057198)
(-0.6852320461 0 -1.572131752)
(-0.4134634155 0 -0.4326628106)
(-0.5556838262 0 -0.4980155654)
(-0.7767444352 0 -0.6997731054)
(-1.005083887 0 -0.8997037121)
(-1.26122132 0 -1.110216287)
(-1.512617426 0 -1.318510296)
(-1.717499577 0 -1.491463811)
(-1.851957435 0 -1.604372201)
(-1.897923474 0 -1.64033991)
(-1.831659479 0 -1.57964777)
(-1.609764585 0 -1.386276226)
(-1.159577012 0 -1.001058994)
(-0.5044446235 0 -0.4701700695)
(0.2307963577 0 0.4127411251)
(0.2050509827 0 0.3943752418)
(0.3187096051 0 0.7460185407)
(0.2483509349 0 0.6383200225)
(0.1964345608 0 0.5376423685)
(0.1579684538 0 0.4541755031)
(0.0301266026 0 -0.1494723397)
(-0.03854868212 0 -0.1873988926)
(-0.1053585904 0 -0.3159325926)
(-0.1664366387 0 -0.353626827)
(-0.03181670335 0 -0.176728798)
(-0.001722440187 0 -0.3397741039)
(0.1000428732 0 -0.6480663748)
(0.2082527875 0 -1.024268798)
(-0.2662265928 0 -0.2652059084)
(-0.3682264989 0 -0.3313597168)
(-0.549277028 0 -0.4918712726)
(-0.7875534222 0 -0.7055549295)
(-1.083634696 0 -0.9545032204)
(-1.403401556 0 -1.224486357)
(-1.68612923 0 -1.467051761)
(-1.902681939 0 -1.652279593)
(-2.035948343 0 -1.763641018)
(-2.068661683 0 -1.786852618)
(-1.967005104 0 -1.694530252)
(-1.653209448 0 -1.422612428)
(-0.9842819146 0 -0.8614665348)
(-0.8076686462 0 -1.598328044)
(-0.2706325447 0 0.4484640247)
(0.1525802023 0 0.3062134036)
(0.1489616011 0 0.3344866893)
(0.1361023777 0 0.3297213272)
(0.119500259 0 0.3042296622)
(0.3485600341 0 -0.835352065)
(0.3908650814 0 -0.9464435757)
(0.5384916597 0 -1.241461636)
(0.5306190613 0 -1.213226127)
(0.3394981269 0 -0.241608848)
(-0.07772479533 0 -0.1274621603)
(-0.128882808 0 -0.1860527164)
(-0.1652389913 0 -0.2305579933)
(-0.1973192628 0 -0.2339363354)
(-0.2424896287 0 -0.2326447196)
(-0.3537244574 0 -0.3134783511)
(-0.5368364033 0 -0.4806700042)
(-0.8202440161 0 -0.7248198249)
(-1.199671823 0 -1.048222757)
(-1.565264656 0 -1.364055231)
(-1.873573128 0 -1.630333948)
(-2.101496612 0 -1.824702504)
(-2.2342341 0 -1.934217475)
(-2.251711435 0 -1.942699791)
(-2.099795838 0 -1.805993825)
(-1.616271019 0 -1.389473217)
(-0.5218893919 0 -0.6932472907)
(0.9087716148 0 0.5412359491)
(0.7587545665 0 0.5080275019)
(0.3937771013 0 0.3260865786)
(0.1320050225 0 0.2097174135)
(0.3734565331 0 -0.7837441506)
(0.5150863714 0 -1.024732767)
(0.496359867 0 -0.7258441525)
(0.02932071838 0 -0.1424476769)
(-0.02891472162 0 -0.1062100415)
(-0.05135270373 0 -0.12628758)
(-0.1381454276 0 -0.2054963275)
(-0.2446200209 0 -0.3844443033)
(-0.2343423063 0 -0.3135421926)
(-0.2353226914 0 -0.2159723577)
(-0.3449828613 0 -0.3088168067)
(-0.5098141658 0 -0.4546943597)
(-0.8861147079 0 -0.7772923319)
(-1.328750417 0 -1.15982294)
(-1.740021625 0 -1.516780213)
(-2.078397756 0 -1.808830109)
(-2.319246042 0 -2.013345801)
(-2.449846142 0 -2.119121887)
(-2.44720197 0 -2.107957063)
(-2.210643997 0 -1.896925881)
(-1.246363999 0 -1.068116365)
(0.7907923154 0 0.4421565109)
(0.6391447828 0 0.4004733719)
(0.8661866238 0 0.8506872134)
(0.787750261 0 0.87508138)
(0.3418367275 0 -0.6616324599)
(0.3697434629 0 -0.5935561373)
(0.4217566381 0 -0.5178438396)
(-0.007471623541 0 -0.1314052385)
(-0.00920478284 0 -0.1069776518)
(-0.01430334068 0 -0.1219710871)
(-0.02399182862 0 -0.1405090096)
(-0.104013642 0 -0.2099807935)
(-0.2323752623 0 -0.3315997611)
(-0.2349541256 0 -0.3027658606)
(-0.2491602689 0 -0.2413487367)
(-0.3700539377 0 -0.3388828923)
(-0.4792080858 0 -0.4187503043)
(-0.9521299809 0 -0.8353408666)
(-1.459900498 0 -1.274961861)
(-1.932178788 0 -1.684951261)
(-2.306581652 0 -2.008056772)
(-2.556469559 0 -2.218935216)
(-2.67894326 0 -2.31451269)
(-2.649690393 0 -2.27654196)
(-2.206340148 0 -1.886084209)
(0.742893446 0 0.3972576315)
(0.5501019807 0 0.3299663351)
(0.9085230165 0 0.7374960583)
(0.2131207281 0 -0.2805549566)
(0.1775626153 0 -0.2299393031)
(0.01292681084 0 -0.1056212617)
(0.01389689796 0 -0.102005464)
(0.01633329679 0 -0.1215091893)
(0.02142257357 0 -0.1556365414)
(0.03327833952 0 -0.215779326)
(0.05977089294 0 -0.3080480679)
(0.04729537778 0 -0.6044539577)
(0.4553029209 0 -0.5530499434)
(0.5304584022 0 -0.4073814481)
(0.2006730522 0 0.2655194862)
(-0.5389479298 0 -0.5053752999)
(-0.985862957 0 -0.8690525622)
(-1.588495623 0 -1.388124196)
(-2.145794962 0 -1.872736029)
(-2.558229459 0 -2.228760273)
(-2.803433728 0 -2.432924545)
(-2.909151139 0 -2.507815643)
(-2.845637138 0 -2.43279244)
(0.4792848266 0 0.01216200282)
(0.4734716145 0 0.2722681719)
(0.0760610154 0 -0.1409384058)
(0.03713670993 0 -0.1438195559)
(0.1856229318 0 -0.567528533)
(0.03765004555 0 -0.1254481196)
(0.2037347977 0 -0.2563536439)
(0.3554964474 0 -0.3227057263)
(0.4036782609 0 -0.331877661)
(0.3700766881 0 -0.02288782521)
(0.6449239993 0 -0.4848441652)
(0.7359179173 0 -0.4284569337)
(-0.1903486267 0 -0.236450066)
(-0.5455124792 0 -0.5643135664)
(-0.7070669625 0 -0.7408606288)
(-0.9527500508 0 -0.8506773547)
(-1.683976962 0 -1.473419531)
(-2.380494443 0 -2.080884283)
(-2.824259421 0 -2.464174214)
(-3.035759768 0 -2.633805541)
(-3.112249549 0 -2.665078127)
(-0.335072957 0 -1.313002486)
(0.5710553297 0 -0.3390476515)
(0.684666704 0 -0.413946671)
(0.8200764352 0 -0.4385829729)
(0.5539017348 0 -0.04017313514)
(0.3546870063 0 -0.2510483917)
(0.659712446 0 0.08868030004)
(0.6710606853 0 -0.2793817097)
(0.7886888271 0 -0.3706042284)
(0.3049491713 0 0.0498109669)
(0.08646216256 0 -0.1944663868)
(-0.007634774593 0 -0.2122331729)
(-0.5595978898 0 -0.4866902836)
(-0.7084580378 0 -0.6895147565)
(-1.598522928 0 -1.401445989)
(-2.623295344 0 -2.302539801)
(-3.074369509 0 -2.697524242)
(-3.202153247 0 -2.774568)
(0.5809545968 0 -0.3290578668)
(0.6492840143 0 -0.3290897516)
(0.2338964015 0 -0.1409857525)
(0.3120788407 0 -0.2035942007)
(0.3263598605 0 0.02111490364)
(0.6958345099 0 -0.07637316687)
(0.8000761008 0 -0.1901712424)
(0.8556925982 0 -0.1288753295)
(0.8824157276 0 0.1482659705)
(0.118525301 0 -0.09672854783)
(0.1418934593 0 -0.1833318829)
(0.1757428613 0 -0.1624320775)
(0.09983556088 0 -0.0644198475)
(0.09202488594 0 0.0008313418612)
(0.280676331 0 -0.1709138304)
(0.1581629877 0 -0.03777141525)
(0.5154233534 0 -0.04245400885)
(0.7294510342 0 -0.01736280494)
(0.6490914224 0 -0.08453337288)
(0.6715022933 0 0.09328149788)
(4.953072791 0 -0.06524724827)
(0.12266173 0 -0.07005745392)
(0.1518476943 0 -0.1040903151)
(-0.8323865202 0 -0.2868609752)
(-0.8069478376 0 -0.2846043136)
(-0.7191627623 0 -0.3099939145)
(-0.6080876934 0 -0.2774458788)
(-0.5596527651 0 -0.2777721665)
(-0.5607694095 0 -0.2811678889)
(-0.638618731 0 -0.3092938982)
(-0.9429705261 0 -0.3826493563)
(-0.9062566216 0 -0.3706847324)
(-1.422484545 0 -0.4281372647)
(-1.835786097 0 -0.433426978)
(-1.581368784 0 -0.3846333823)
(-2.088336195 0 -0.3925568085)
(-2.181126167 0 -0.3037393851)
(-1.942098775 0 -0.273536495)
(-0.3635622538 0 -0.04444477957)
(-0.2643989564 0 -0.01558187117)
(-0.2547938649 0 -0.02131287775)
(-0.4442161132 0 0.02432577031)
(-0.6199285181 0 0.07333622885)
(-0.6241002572 0 0.08613490777)
(-0.5667706784 0 0.08290573908)
(-0.4946860584 0 0.07518961312)
(-1.073956365 0 -0.57703896)
(-0.9952066121 0 -0.5238372044)
(-0.8979069033 0 -0.4773508288)
(-0.812606188 0 -0.4267408588)
(-0.8292139119 0 -0.4176082034)
(-0.7823304089 0 -0.3762227016)
(-0.773243896 0 -0.3230734195)
(-0.8222026788 0 -0.2951399874)
(-0.481969139 0 0.07376172141)
(-0.3938494599 0 0.07058477697)
(-0.3680618499 0 0.06875027318)
(-0.330831482 0 0.08064951612)
(-0.308244906 0 0.09581290822)
(-0.3070271622 0 0.09084958557)
(-0.293329401 0 0.1112202114)
(-0.2775406328 0 0.1228392698)
(-1.125679705 0 -0.8238820663)
(-1.097745004 0 -0.7338394652)
(-1.042455274 0 -0.6350175823)
(-1.11802569 0 -0.6483798488)
(-0.2589850299 0 0.1483214981)
(-0.2486855715 0 0.1560378415)
(-0.2505475744 0 0.1503805217)
(-0.242439806 0 0.1643561648)
(-1.06934971 0 -0.9364549965)
(-1.070511468 0 -0.9249413701)
(-1.098801179 0 -0.9253982461)
(-1.05361699 0 -0.8923751133)
(-1.037436278 0 -0.850241246)
(-1.079210129 0 -0.835642954)
(-0.243515514 0 0.1741184112)
(-0.2392330532 0 0.1792014498)
(-0.2389792999 0 0.1746637307)
(-0.2339163222 0 0.1806489508)
(-0.2274117673 0 0.180676954)
(-1.014002158 0 -0.906956161)
(-1.030597323 0 -0.9193945828)
(-1.040031827 0 -0.9246547087)
(-0.2073016734 0 0.1744594789)
(-0.2102455573 0 0.1698746756)
(-0.9655994922 0 -0.8795111268)
(-0.9876344275 0 -0.8947311443)
(-0.9908706452 0 -0.8925613819)
(-0.3142268487 0 0.1934735287)
(-0.3524942027 0 0.2120473289)
(-0.9146643055 0 -0.850012181)
(-0.9464696633 0 -0.8753450409)
(-0.9951201746 0 -0.9180437448)
(-0.9914635995 0 -0.9059441706)
(-0.3622275986 0 0.2103613091)
(-0.3853528457 0 0.2227062652)
(-0.3736410284 0 0.218906362)
(-0.3988433065 0 0.2348742977)
(-0.8440977066 0 -0.7994450579)
(-0.8871440019 0 -0.8397142414)
(-0.899257629 0 -0.8425681761)
(-0.4063227728 0 0.2448301336)
(-0.404815479 0 0.2545513431)
(-0.4037992562 0 0.2478558696)
(-0.7538274339 0 -0.7273461727)
(-0.7815322307 0 -0.7494999223)
(-0.3890573024 0 0.2789461103)
(-0.6475834898 0 -0.6400888203)
(-0.7095888231 0 -0.7075513562)
(-0.7271659041 0 -0.710916393)
(-0.3945103598 0 0.3086234866)
(-0.3512238024 0 0.2949256411)
(-0.3621664311 0 0.2873756137)
(-0.5214073269 0 -0.5364516018)
(-0.5868263023 0 -0.6033248185)
(-0.683614123 0 -0.7170088345)
(-0.6937382096 0 -0.7072342476)
(-0.4097984572 0 0.3627556527)
(-0.3322643736 0 0.3190662345)
(-0.3380524936 0 0.3025795963)
(-0.3039557076 0 0.3109267101)
(-0.4585581013 0 -0.5016381627)
(-0.4918714072 0 -0.5173586207)
(-0.2885845536 0 0.3612151177)
(-0.3291947762 0 -0.4171470254)
(-0.4251860903 0 -0.5298665287)
(-0.4348307712 0 -0.5000839586)
(-0.1574869258 0 0.292237689)
(-0.09719408528 0 0.2264924567)
(-0.3413350745 0 -0.4991329537)
(-0.4424650898 0 -0.6532388108)
(-0.4455267565 0 -0.6040055444)
(-0.06565269921 0 0.2994763319)
(-0.06085897603 0 0.2942250772)
(-0.05133255896 0 0.2012296358)
(-0.3323883753 0 -0.5811898954)
(-0.4005076545 0 -0.7088291536)
(-0.4265331432 0 -0.6873002984)
(0.3355387092 0 1.475504061)
(0.302386602 0 1.380698733)
(0.2972415111 0 1.741195754)
(-0.2924327236 0 -0.634229223)
(-0.3270208305 0 -0.7191318781)
(-0.3668455987 0 -0.7191760725)
(0.1506263771 0 0.7213322613)
(0.1392107581 0 0.694105332)
(0.2197934752 0 0.9712636278)
(-0.2241418629 0 -0.6512229175)
(-0.2329616538 0 -0.6908065055)
(-0.2819663724 0 -0.7087809082)
(0.08296671725 0 0.3742279314)
(0.08424149855 0 0.3867253735)
(0.1061415769 0 0.525044702)
(-0.1353297867 0 -0.6996120535)
(-0.1760588822 0 -0.675362043)
(0.02688075327 0 0.08345663951)
(0.06350556347 0 0.260938696)
(-0.101994556 0 -1.038112128)
(-0.1033323295 0 -0.805716121)
(0.1169031588 0 0.4397857439)
(-0.175266645 0 -1.411873905)
(-0.1819909997 0 -1.550013376)
(-0.1893173318 0 -1.534304473)
(-0.2039814433 0 -1.441364195)
(0.1632211323 0 0.4990281249)
(0.1448303322 0 0.4501245444)
(0.1379554385 0 0.4691823256)
(-0.1153065592 0 -1.383864628)
(-0.1172822476 0 -1.342715125)
(-0.1606270729 0 -1.538739525)
(0.1354669319 0 0.3748063857)
(0.1337777366 0 0.3728586016)
(0.1442721442 0 0.4239832865)
(0.03425264661 0 -0.130102722)
(0.03719291418 0 -0.1279478152)
(0.1116008354 0 0.2594443039)
(0.347598577 0 -0.7846153132)
(0.3620306479 0 -0.8081758074)
(0.3693871884 0 -0.8853314009)
(0.1852425527 0 0.1904153559)
(0.1349964881 0 0.1817807544)
(0.1098783739 0 0.202018925)
(0.3503848931 0 -0.7458067657)
(0.3564539705 0 -0.7212009773)
(0.4077093408 0 -0.8068330045)
(0.4413212012 0 -0.9077809909)
(0.9362981293 0 0.8011285457)
(0.8818688894 0 0.8148122171)
(0.8477993502 0 0.9060753967)
(0.2909820067 0 -0.4660035028)
(0.3467975829 0 -0.6391159124)
(0.8110624615 0 0.6317541879)
(0.8489243454 0 0.743975447)
(0.1185107231 0 -0.1704691875)
(0.1961378493 0 -0.2531976126)
(0.4712238036 0 0.2704369632)
(0.4365334091 0 0.2625092863)
(0.8646267581 0 -0.7272882224)
(0.04153925174 0 -0.1261631632)
(0.8608705662 0 -0.7098357209)
(0.8176755892 0 -0.6664904233)
(0.106264827 0 -0.3473872988)
(-3.168710368 0 -2.718116771)
(0.03058243858 0 -0.6431471622)
(0.06035200221 0 -0.9638509926)
(0.06941573615 0 -0.7366475088)
(0.7586892554 0 0.4392383493)
(0.6751491541 0 -0.4798616653)
(0.5404470615 0 -0.3175312299)
(0.5467284484 0 -0.316180068)
(0.6023164689 0 -0.3409674371)
(1.447218809 0 -0.1729616663)
(1.453193933 0 -1.695579663)
(-3.154998733 0 -2.763978168)
(0.6212039348 0 -0.333603216)
(0.6310170992 0 -0.3157487498)
(0.6472299098 0 -0.3047387981)
(0.6690117824 0 -0.3166324497)
(0.2164623025 0 -0.1452689233)
(0.2429747293 0 -0.1644891139)
(0.2692834866 0 -0.1888234876)
(0.1571111226 0 -0.1028714044)
(0.1413295958 0 -0.07003783092)
(0.1626812787 0 -0.1075919902)
(0.09520729787 0 -0.05203464517)
(0.03461045327 0 -0.03792733127)
(0.0109347639 0 -0.03022841056)
(0.1882265818 0 0.05232579146)
(0.2432123829 0 -0.1608806116)
(0.3195613557 0 -0.1768454025)
(0.2538824864 0 -0.04004660549)
(0.2237407706 0 -0.04398312663)
(0.4663582769 0 -0.03668852367)
(0.6640293608 0 -0.04057775359)
(0.7538984605 0 -0.04959192991)
(0.6434478544 0 -0.009389704025)
(0.411719873 0 -0.02858762547)
(0.4765853604 0 -0.03318120219)
(0.5837537762 0 -0.07158487027)
(0.6782437723 0 0.01875333854)
(0.7208502305 0 0.02494912056)
(0.6024443335 0 0.07885913159)
(1.13941441 0 -0.07829819029)
(0.9498168776 0 -0.03311873527)
(4.165040211 0 -0.09180581233)
(2.704177898 0 0.2823466575)
(0.1371697118 0 -0.1074058201)
(-0.7543974501 0 -0.3073097275)
(-0.7030073092 0 -0.310866618)
(-0.7177846462 0 -0.3142324628)
(-0.6457196115 0 -0.2803732842)
(-0.6082775629 0 -0.2683833134)
(-0.5903182122 0 -0.2748485663)
(-0.6609994077 0 -0.2930417073)
(-1.069546814 0 -0.400869293)
(-1.019415283 0 -0.3970855023)
(-1.630353594 0 -0.4765191657)
(-2.022135059 0 -0.476517455)
(-1.983931911 0 -0.4632965594)