/*--------------------------------*- C++ -*----------------------------------*\
| =========                 |                                                 |
| \\      /  F ield         | OpenFOAM: The Open Source CFD Toolbox           |
|  \\    /   O peration     | Version:  2.1.x                                 |
|   \\  /    A nd           | Web:      www.OpenFOAM.org                      |
|    \\/     M anipulation  |                                                 |
\*---------------------------------------------------------------------------*/
FoamFile
{
    version     2.0;
    format      ascii;
    class       surfaceScalarField;
    location    "1.3";
    object      phi;
}
// * * * * * * * * * * * * * * * * * * * * * * * * * * * * * * * * * * * * * //

dimensions      [1 1 -1 0 0 0 0];

internalField   nonuniform List<scalar> 
5536
(
4.539659461e-10
-7.095309045e-10
-4.374085413e-10
4.868728207e-10
-5.694877726e-10
-4.54109608e-10
4.99316849e-10
-6.472396976e-10
-7.802836845e-10
1.066956726e-09
-1.010185518e-09
-9.689710713e-10
5.352116005e-10
-1.632167419e-09
-7.613782821e-09
-1.679092477e-09
1.479018095e-09
-1.223877369e-09
-9.426964007e-10
1.172624773e-09
6.482104993e-10
-1.007094341e-09
-5.620940708e-10
3.152431655e-09
1.010149965e-09
-1.738157673e-08
-5.247505857e-09
7.409570215e-10
7.423978123e-10
-1.315615031e-09
-3.675238088e-10
5.986277062e-10
4.766005101e-10
-6.8489637e-10
-5.371749767e-10
9.017626265e-10
6.699129741e-10
-1.26565022e-09
-8.766286264e-10
1.12852557e-09
9.309899606e-10
-1.604373362e-09
-7.314901104e-10
7.740608649e-10
6.975757412e-10
-4.423001265e-10
-5.217787379e-10
4.370035747e-10
2.999510309e-10
-2.354684087e-10
-1.189784189e-10
6.599284041e-11
-2.405826903e-11
-1.538665529e-11
2.912888379e-11
5.216143611e-13
1.419531971e-13
1.955089813e-13
-3.526528441e-10
6.65925926e-11
8.743981193e-09
-3.098682599e-10
-5.847315685e-09
-3.304672796e-09
5.222562795e-09
7.871904658e-10
-4.461936245e-09
-9.164257782e-10
8.557995733e-10
7.472907325e-10
-6.619331204e-10
-5.615518557e-10
1.286764286e-09
7.245809941e-10
-4.153796482e-09
-4.183950879e-09
4.647867068e-08
1.605734123e-08
-5.351948402e-08
-1.90507668e-08
7.72707702e-09
-2.054389488e-09
-2.66104309e-08
3.028017857e-09
7.156913218e-10
1.62467528e-10
-9.062372828e-10
-5.276523191e-10
1.458263149e-09
6.634333748e-10
-1.290823146e-09
-9.195540412e-10
1.952470738e-09
8.04339872e-10
-1.611802511e-09
-4.670132183e-10
1.626208684e-10
4.462914699e-10
9.295858823e-12
-3.958951355e-10
7.263106468e-11
2.042623568e-10
2.682381191e-11
-6.85361347e-11
-2.180657287e-12
5.038685963e-11
3.797856701e-11
-4.951219621e-11
-4.943349151e-11
6.604128825e-11
1.3408471e-10
-1.098427412e-10
-8.338294708e-10
2.203586055e-10
8.917135018e-10
-1.356216848e-10
2.224718838e-10
-3.565399194e-11
-1.122877214e-10
1.623368983e-10
-3.144690533e-10
-5.826139652e-11
4.215433036e-10
-3.099470243e-11
-5.302901223e-10
1.08739091e-10
4.01632062e-09
-9.66196447e-11
-3.084989669e-09
-1.956248956e-09
3.322692907e-09
6.36176462e-10
-2.182506654e-09
-5.38976533e-10
5.70216897e-10
5.045221215e-10
-4.683785314e-10
-1.083658375e-09
9.190929372e-09
7.343025873e-09
-1.533203746e-09
-2.12296242e-08
3.090768907e-08
2.196745096e-08
-2.560995676e-09
-6.328512513e-09
2.637013645e-08
-2.754880579e-09
-2.241797988e-09
1.896367032e-08
2.821377777e-09
-1.191212442e-08
-1.683479774e-09
1.615149676e-09
8.153392622e-10
2.001821106e-10
-3.414412713e-10
-5.535558374e-10
1.138320993e-09
9.715527602e-10
-1.25376648e-09
-4.627596231e-10
1.811318431e-09
3.435404479e-10
-1.898366865e-08
-4.58708898e-10
-8.031090054e-11
4.27077684e-10
2.416798286e-10
-1.613168626e-10
-1.020086543e-10
1.596437341e-10
2.605147823e-10
-2.406888842e-10
-3.57438783e-10
4.602886872e-10
9.073180985e-10
-9.314472001e-10
-1.598204069e-09
1.722596239e-09
2.787116961e-09
-2.791706079e-09
-3.482968569e-09
4.343352526e-09
5.599504214e-09
-6.406433559e-09
-1.626796392e-08
8.961386379e-09
7.649420381e-11
7.281297336e-09
1.46940677e-11
-2.675189329e-11
3.291670159e-10
2.231018933e-10
-3.371513125e-10
-2.231693586e-10
4.024883531e-10
2.15720968e-10
-5.035344913e-10
-1.830208509e-10
6.796497343e-10
5.657174387e-11
-8.830018537e-10
3.752960761e-11
2.26539285e-09
5.017892008e-10
-1.470223625e-09
-1.317009069e-09
1.277923425e-09
5.985357591e-10
-6.900728649e-10
-4.293797405e-10
3.950151516e-10
3.754144707e-10
-3.29593402e-10
-3.257556805e-10
4.484586615e-10
2.848979656e-10
-3.537536235e-10
-2.500215822e-10
5.315992038e-10
2.218537326e-10
-4.580775579e-10
-1.995179056e-10
7.156082332e-10
2.494198267e-10
-1.058076837e-09
-4.508030809e-10
1.324180033e-09
7.586878138e-10
-2.983847484e-09
-4.54561851e-10
4.269330817e-10
3.097711893e-10
-1.453289483e-09
-1.913958789e-09
1.307906669e-09
1.574489827e-09
-1.30973302e-09
-1.192018668e-09
4.451846873e-08
1.902458179e-09
-3.444269312e-08
2.919031422e-09
-6.13784536e-10
3.494957805e-10
1.214216662e-09
-6.323585466e-10
-6.133204165e-10
7.50846771e-10
1.222985265e-09
-1.199235922e-09
-1.777522264e-09
1.922865229e-09
2.851241117e-09
-2.875666213e-09
-4.075594011e-09
3.956550999e-09
5.255294734e-09
-5.024405117e-09
-6.61779035e-09
5.953622217e-09
7.27665741e-09
-6.544277357e-09
-7.285613195e-09
6.678379325e-09
7.777407034e-09
-7.110007496e-09
-9.990571022e-09
1.000482427e-08
1.069655691e-08
-1.063779543e-08
-1.098331508e-10
9.532440214e-12
3.655029023e-10
4.471433626e-10
-5.724519033e-10
-4.109626414e-10
4.116861582e-10
3.731931235e-10
-5.762600199e-10
-3.545871381e-10
5.894411053e-10
3.874986597e-10
-6.503384856e-10
-5.147859635e-10
8.958934761e-10
7.677961609e-10
-7.178430145e-10
-9.389038547e-10
7.950948328e-10
7.892445597e-10
-4.015889101e-10
-7.408456757e-10
3.765368177e-10
4.352985594e-10
-2.406000931e-10
-3.587473722e-10
2.658262175e-10
3.028414966e-10
-2.049714054e-10
-2.550489722e-10
2.769678951e-10
2.240136906e-10
-2.193146072e-10
-2.17677018e-10
4.484189347e-10
2.511405894e-10
-4.679386329e-10
-4.155596045e-10
1.625505576e-09
1.076134895e-09
-1.923547481e-09
-2.342784213e-09
3.982471841e-09
3.13794615e-09
-3.338420114e-09
-3.056789398e-09
2.455733672e-09
2.700754169e-09
-3.405720447e-09
-4.68922994e-09
5.114083783e-09
1.145985504e-08
-6.961719193e-09
-1.053283895e-08
9.917172518e-09
1.553801854e-09
-1.096169545e-09
1.353851658e-09
-1.115057885e-09
-8.829490657e-09
-4.101441956e-09
-7.685740442e-10
-2.085256842e-09
2.289476073e-09
2.961030682e-09
-3.030762104e-09
-4.015624562e-09
3.953263676e-09
5.198904891e-09
-4.977235032e-09
-6.314237251e-09
5.961211674e-09
7.287362698e-09
-6.827614063e-09
-7.954694755e-09
7.556309987e-09
8.633146957e-09
-8.152673751e-09
-8.684446918e-09
8.654103024e-09
9.168731423e-09
-9.059482107e-09
-1.000420181e-08
8.983364754e-09
8.646542913e-09
-7.563816613e-09
-5.032712896e-09
5.661666556e-09
4.443862421e-09
-5.053783875e-09
3.597923042e-12
-5.280805856e-11
7.63689889e-10
-1.001345971e-09
-1.81669873e-09
1.931033308e-09
1.014638062e-09
-1.82700814e-09
-2.000945805e-09
9.777502287e-10
1.997293651e-09
-1.785447026e-09
-1.883558743e-09
6.74772312e-10
1.722866e-09
-8.656084218e-10
-1.56234276e-09
4.395823744e-10
1.327791472e-09
-1.544941555e-10
-9.994454752e-10
2.725759353e-10
6.852757161e-10
-1.524728333e-10
-4.95981104e-10
1.877502803e-10
3.900986946e-10
-1.35883695e-10
-3.148809437e-10
1.489872195e-10
2.478594816e-10
-9.862177548e-11
-2.089442959e-10
1.753102491e-10
2.103998253e-10
-1.388006744e-10
-2.626369784e-10
4.303619469e-10
4.278287826e-10
-3.870456498e-10
-9.421479861e-10
1.549906549e-09
1.994868268e-09
-9.337590089e-10
-2.90011563e-09
2.466604118e-09
3.349670615e-09
-1.381320013e-09
-3.436436426e-09
1.563634041e-09
3.040522819e-09
4.443448672e-11
-1.753661538e-09
1.649646442e-09
1.243000454e-09
1.138472445e-09
-9.183246179e-10
-4.034534703e-11
5.103872486e-10
8.735403193e-09
-3.845984063e-10
-7.785421279e-10
1.367107737e-10
5.490752884e-09
-1.020957897e-09
-5.931512606e-09
3.270049373e-09
6.132013078e-09
-5.157614264e-09
-6.347446646e-09
6.125155253e-09
7.417455864e-09
-7.003313847e-09
-8.15203334e-09
7.756971773e-09
8.814626333e-09
-8.318430626e-09
-9.104065959e-09
8.629675571e-09
9.172691851e-09
-8.616754879e-09
-8.94385848e-09
8.188969701e-09
8.073564785e-09
-7.251949854e-09
-6.900611632e-09
5.766556879e-09
5.112040491e-09
-3.942771107e-09
-2.987449794e-09
2.319971382e-09
1.761281572e-09
-1.086159432e-09
-9.981383995e-13
4.604464589e-13
3.397453707e-13
6.438334425e-14
-2.639895645e-09
-5.69185275e-09
2.200996915e-09
5.480171561e-09
-2.416033604e-09
-5.972290514e-09
2.619434887e-09
6.918820792e-09
-2.724842705e-09
-7.959751844e-09
2.613492595e-09
8.4601974e-09
-2.707945297e-09
-8.031409385e-09
1.336570507e-09
6.756475799e-09
-1.779747455e-09
-4.996551681e-09
1.14572929e-10
3.185723321e-09
-6.537364017e-10
-1.760304992e-09
4.514718445e-11
9.721728247e-10
-5.322448978e-11
-6.200753794e-10
7.648413516e-11
4.024061068e-10
7.069142848e-12
-2.639403518e-10
5.321783427e-11
1.973225867e-10
-7.00738676e-12
-2.121750977e-10
1.550453456e-10
3.790793258e-10
-9.895988163e-10
-1.126779434e-09
1.866568549e-09
2.36017148e-09
-7.56025869e-09
-1.650077578e-09
-6.181656706e-11
1.555261634e-09
8.034899006e-10
-2.298289608e-09
1.905385399e-10
2.6366808e-09
1.254975695e-09
-2.366909755e-09
-1.44893369e-09
1.574479039e-09
2.828227374e-09
-1.054788512e-09
-1.728943499e-09
1.770463057e-09
2.502211486e-09
-3.158792833e-09
-2.14282487e-08
5.641758671e-09
1.937055616e-08
-4.086450682e-09
-7.594501677e-09
5.320607687e-09
9.125956364e-09
-5.885761982e-09
-6.99726913e-09
6.559339027e-09
8.059961922e-09
-7.27385656e-09
-8.316187995e-09
7.889501598e-09
8.952528887e-09
-8.33963019e-09
-9.163094825e-09
8.537671148e-09
9.122854993e-09
-8.410468021e-09
-8.765411205e-09
7.907371739e-09
7.935288347e-09
-7.014644178e-09
-6.791061344e-09
5.772116048e-09
5.356429484e-09
-4.299404004e-09
-3.536638457e-09
2.805088486e-09
2.288993288e-09
-1.545376788e-09
-9.432910658e-10
6.919989218e-10
4.602162499e-10
-2.069098835e-10
-1.885670146e-13
2.257762674e-15
7.081386824e-14
6.404771645e-14
-9.307219552e-14
4.263668475e-14
5.50530394e-14
-5.974512705e-14
1.367402436e-09
8.846759502e-09
-1.948942963e-09
-7.253375134e-09
2.076244135e-09
7.315802501e-09
-1.450900723e-09
-8.103584372e-09
1.98491866e-09
9.693164333e-09
-9.576779326e-10
-1.158459347e-08
2.033560446e-09
1.301749958e-08
-1.838405108e-09
-1.366773455e-08
2.299777445e-09
1.349447887e-08
-4.837879618e-09
-1.232441656e-08
1.922038327e-09
1.011039828e-08
-4.06311618e-09
-7.344317505e-09
6.687236099e-10
4.799894249e-09
-1.311139706e-09
-2.800153745e-09
-1.165317273e-12
1.192013659e-09
-3.413098582e-10
-3.588238828e-10
-1.759538037e-11
3.764338204e-10
-4.067955099e-10
-1.849107733e-09
5.949658421e-09
7.104668891e-09
-1.036631393e-08
-1.081422497e-08
1.166250578e-08
7.900010836e-09
-8.39049286e-09
-2.431316505e-09
-7.379602056e-10
2.196003198e-09
1.226310195e-09
-2.996976271e-09
-1.93379249e-09
2.960391025e-09
2.650970106e-09
-2.643607067e-09
-3.822981372e-09
2.143011037e-09
4.638238228e-09
-2.215846314e-09
-3.455647269e-09
3.663350503e-09
4.664324778e-09
-5.527078397e-09
-1.211445538e-08
7.412896173e-09
1.027736524e-08
-8.019336374e-09
-1.048471644e-08
8.326362068e-09
1.176491256e-08
-8.226042361e-09
-8.993973387e-09
8.371942022e-09
9.651882351e-09
-8.536141045e-09
-9.252714592e-09
8.537855688e-09
9.177438615e-09
-8.294309456e-09
-8.683421184e-09
7.754572068e-09
7.893043275e-09
-6.901925908e-09
-6.809613242e-09
5.775733705e-09
5.541811628e-09
-4.472793314e-09
-3.97523994e-09
3.136533615e-09
2.778580819e-09
-1.929401248e-09
-1.381515426e-09
9.894676889e-10
7.71801116e-10
-3.851050865e-10
-2.027459065e-10
8.542505677e-11
1.204837099e-10
-4.621100398e-12
-7.921101112e-12
-3.651511678e-12
1.449254217e-11
-2.11893077e-12
-1.190336956e-12
1.107592445e-11
4.653772814e-11
-4.861120531e-11
1.860557377e-09
1.16513145e-10
-9.608885099e-10
-8.199383944e-09
6.091332528e-09
9.845276725e-10
-3.03880769e-10
-5.502726979e-09
6.305451764e-10
5.152217039e-09
-1.254072437e-09
-5.980314482e-09
1.904043382e-09
1.062944597e-08
-1.004014007e-08
-2.116576202e-08
8.839271394e-09
3.151898256e-08
-1.276772308e-08
-3.414460386e-08
1.082918761e-08
3.018572965e-08
-7.814869033e-09
-2.393181568e-08
6.593973246e-09
1.798483212e-08
-5.430796431e-09
-1.325503085e-08
1.813965406e-09
9.937099773e-09
-3.859562912e-09
-7.884791901e-09
7.664876347e-10
5.563572406e-09
-2.740566414e-09
-6.134461417e-09
3.773249344e-09
1.259935956e-08
-4.85343872e-09
-1.638466486e-08
6.880191569e-09
1.181573277e-08
-2.09607962e-09
-6.51214663e-09
3.874569087e-09
3.786657042e-09
-3.296988493e-10
-3.724860206e-09
-1.813721e-09
3.027033344e-09
1.296674341e-09
-3.346798143e-09
-3.351142052e-09
3.052533753e-09
3.737418814e-09
-2.525348641e-09
-5.009489087e-09
2.577304176e-09
4.988241041e-09
-3.713576985e-09
-6.02868627e-09
6.101814646e-09
7.531576091e-09
-8.401175452e-09
-1.147111407e-08
1.011485404e-08
1.329018583e-08
-1.08596684e-08
-1.291100309e-08
1.049067554e-08
1.380816981e-08
-9.630936086e-09
-9.96337907e-09
8.958587917e-09
9.883331978e-09
-8.357831395e-09
-8.723944692e-09
7.620153605e-09
7.910549443e-09
-6.674878414e-09
-6.830829199e-09
5.523555429e-09
5.561870924e-09
-4.217828663e-09
-4.218974317e-09
2.893218731e-09
3.149596742e-09
-1.806915745e-09
-1.798326753e-09
1.230847271e-09
1.813426436e-09
-1.254003721e-09
-5.606779439e-10
1.913264383e-09
2.101250809e-09
-3.469543437e-09
-1.145736976e-10
6.406936345e-09
5.166263304e-09
-1.148516968e-08
-1.735004934e-11
2.009213271e-08
1.442423773e-08
-3.454928447e-08
-7.441209151e-11
5.871935125e-08
4.027941306e-08
-9.905456837e-08
-2.589717001e-09
1.116371982e-07
-2.75906116e-07
1.661837387e-07
5.605570777e-11
-1.205733778e-10
-1.733325135e-09
3.982273168e-09
7.246289184e-10
-2.721618831e-09
-1.061499276e-08
5.533090744e-09
2.258277233e-08
-7.160957973e-09
-3.203281654e-08
1.105337102e-08
3.154679311e-08
-7.314136724e-09
-2.408933116e-08
6.891072812e-09
1.576472614e-08
-3.411217096e-09
-9.847359428e-09
3.536084517e-09
6.591561792e-09
-1.471180197e-09
-5.206809641e-09
3.113149847e-09
5.037902781e-09
-1.275365765e-09
-5.681284533e-09
3.721762932e-09
6.445133692e-09
-1.922798612e-09
-5.96828972e-09
2.090230308e-09
4.496040009e-09
-1.761694436e-09
-2.871360345e-09
2.139242934e-10
1.665383774e-09
5.895913629e-10
-3.036483351e-09
-4.462861137e-10
5.202185581e-09
4.349184902e-09
-4.532245785e-09
-7.183083754e-11
2.731122999e-09
3.690733178e-09
-1.791224345e-09
-3.046749277e-09
-2.362510016e-10
3.785807571e-09
-1.557215233e-09
-4.193679243e-09
2.761781868e-09
4.282561601e-09
-2.835098154e-09
-5.149918916e-09
3.605572554e-09
5.934721547e-09
-5.732761893e-09
-9.222402785e-09
8.486822595e-09
1.107193479e-08
-1.08285164e-08
-1.498285754e-08
1.226011011e-08
1.629542405e-08
-1.234994668e-08
-1.431358794e-08
1.111272774e-08
1.429243447e-08
-9.305229162e-09
-9.380822538e-09
7.739822228e-09
8.526160238e-09
-6.467483507e-09
-6.816161685e-09
5.363155515e-09
6.023450767e-09
-4.536201973e-09
-4.597558564e-09
4.243515176e-09
5.0493933e-09
-4.715199417e-09
-3.415939439e-09
6.144655434e-09
6.022729876e-09
-8.80750153e-09
-4.144285514e-09
1.310147913e-08
1.049075795e-08
-1.954178335e-08
-8.385901056e-09
2.876301028e-08
2.098573952e-08
-4.150834725e-08
-1.917179871e-08
5.85631702e-08
4.101510102e-08
-8.063038255e-08
-4.221103093e-08
1.080815504e-07
7.430959699e-08
-1.405066628e-07
-8.592250974e-08
1.760780929e-07
1.202514006e-07
-2.108588686e-07
-1.505760739e-07
1.628035203e-07
-2.513550143e-07
2.384501383e-07
1.736678394e-09
6.559256304e-09
-2.054830094e-09
-8.636550763e-09
2.993853872e-09
9.728694678e-09
-1.760666606e-09
-1.183925367e-08
4.786435911e-09
1.562847819e-08
-2.453711739e-09
-1.810658444e-08
4.635763564e-09
1.601938629e-08
-3.271833852e-09
-1.148391888e-08
1.879362312e-09
6.906291521e-09
-1.323770456e-09
-3.743131402e-09
6.318326845e-10
2.077980833e-09
-2.651808077e-10
-1.375215724e-09
4.719388168e-10
1.152041449e-09
-1.44647255e-10
-1.183333478e-09
9.409563628e-10
1.40176965e-09
-4.95857652e-10
-1.756890278e-09
1.921887617e-09
2.6257916e-09
-1.710664735e-09
-4.923989326e-09
2.83288815e-09
8.937726076e-09
-9.184533235e-09
-8.421879468e-09
-5.031098144e-09
3.924441871e-09
3.974050016e-10
-6.579699209e-09
-9.518720773e-09
7.757021496e-09
1.15490842e-08
-4.050071581e-09
-3.88228573e-09
3.538094386e-09
4.47285882e-09
-3.953349551e-09
-4.946562412e-09
4.037886639e-09
6.092245074e-09
-4.43476701e-09
-7.373020179e-09
5.756131519e-09
9.311999794e-09
-8.04897047e-09
-1.296236009e-08
1.042560379e-08
1.476188164e-08
-1.209376027e-08
-1.709083367e-08
1.263694958e-08
1.73588118e-08
-1.183440163e-08
-1.373224029e-08
1.000239238e-08
1.303025784e-08
-8.157175435e-09
-7.868783834e-09
7.35435424e-09
8.361616476e-09
-7.782478833e-09
-6.567831087e-09
9.266958958e-09
9.021807196e-09
-1.182342339e-08
-7.649364164e-09
1.565320403e-08
1.289582868e-08
-2.104185818e-08
-1.189430749e-08
2.830267045e-08
2.110731756e-08
-3.772346436e-08
-2.132285232e-08
4.950302594e-08
3.520307261e-08
-6.367402599e-08
-3.815713105e-08
7.999480654e-08
5.559699291e-08
-9.78174508e-08
-6.369670995e-08
1.159374668e-07
7.972626719e-08
-1.324327814e-07
-9.530681451e-08
1.445656915e-07
9.908662363e-08
-1.488485733e-07
-1.195516404e-07
1.41465386e-07
9.695326472e-08
-1.193079415e-07
-1.019984337e-07
8.206522777e-08
5.566536557e-08
-3.597582923e-08
-3.178366793e-11
4.231373128e-13
2.549471266e-11
2.003048795e-08
4.595053691e-10
3.827560165e-09
-1.436073275e-08
5.432242687e-10
9.486610413e-09
1.717434917e-09
-7.225684862e-09
1.961179689e-09
8.009749463e-09
-9.052469505e-10
-9.327265825e-09
2.000939815e-09
9.111672742e-09
-7.656536299e-10
-8.606544452e-09
7.649271135e-10
7.621377611e-09
-6.668523106e-10
-6.258957098e-09
-7.205761418e-11
4.503074833e-09
-2.613355674e-10
-2.686193437e-09
-5.972318294e-11
1.508527992e-09
6.923673027e-11
-1.092401916e-09
3.556047948e-10
1.197301512e-09
-1.97422966e-10
-1.590971989e-09
1.348318517e-09
2.146556064e-09
-1.217770437e-09
-3.276343998e-09
6.065791626e-09
5.693477424e-09
-2.664659001e-09
-8.080242148e-09
5.82800513e-09
7.572732874e-09
-3.122291882e-09
-6.660402936e-09
-7.51996864e-09
4.553238665e-09
4.786172234e-09
-5.034311618e-09
-5.406576659e-09
5.485492468e-09
6.76640701e-09
-5.798711517e-09
-7.679701902e-09
6.349031876e-09
9.653331725e-09
-7.299707206e-09
-1.159573488e-08
8.8910746e-09
1.415487527e-08
-1.081221962e-08
-1.641369357e-08
1.239618287e-08
1.800834822e-08
-1.328030096e-08
-1.737309747e-08
1.347566492e-08
1.770466889e-08
-1.322720036e-08
-1.301024321e-08
1.31427307e-08
1.428735584e-08
-1.417208066e-08
-1.053721328e-08
1.684604666e-08
1.453832919e-08
-2.099837181e-08
-1.364986328e-08
2.65102073e-08
2.035601003e-08
-3.344883832e-08
-2.073527585e-08
4.189536646e-08
3.036306121e-08
-5.183504096e-08
-3.257671107e-08
6.309375296e-08
4.43683108e-08
-7.52906984e-08
-4.932699429e-08
8.779838159e-08
6.075634181e-08
-9.971550037e-08
-6.887663387e-08
1.098726091e-07
7.535222148e-08
-1.168829425e-07
-8.542387309e-08
1.192744318e-07
8.13549006e-08
-1.157238025e-07
-8.892177073e-08
1.054063238e-07
7.154116604e-08
-8.844517521e-08
-6.890596098e-08
6.635168177e-08
4.456464686e-08
-4.225910899e-08
-2.810679574e-08
2.06089736e-08
1.32735613e-08
-5.851958921e-09
9.148305062e-15
-7.541793151e-14
7.044012532e-14
-6.805102971e-10
9.658110929e-10
-9.621126961e-09
1.846472719e-08
-6.062887969e-09
4.52347443e-09
-2.145881421e-08
-4.006783916e-09
1.615975935e-08
4.570062732e-09
-7.703663026e-09
5.15753014e-10
2.22716062e-09
-2.279834914e-10
-1.450927795e-09
4.506403943e-10
1.282899586e-09
-1.809269167e-10
-1.570017048e-09
5.412501089e-10
2.402342253e-09
-1.871455879e-10
-4.083801484e-09
-5.803403542e-11
6.611508274e-09
-9.948875094e-11
-8.898063372e-09
-4.424131174e-10
9.659901524e-09
1.100269504e-10
-8.716908348e-09
-2.0245031e-10
6.689081351e-09
-1.912804102e-10
-4.180625705e-09
7.201732298e-10
2.063233554e-09
-3.249632655e-10
-1.150411401e-09
1.07473481e-09
1.126983575e-09
-4.55236229e-10
-1.714721119e-09
1.435078179e-09
2.943084508e-09
-2.17133717e-10
-4.940333766e-09
-4.846443022e-09
6.911696773e-09
5.873761727e-09
-7.528137684e-09
-8.990509064e-09
7.577492591e-09
1.174138099e-08
-8.646595813e-09
-1.214333859e-08
1.01478867e-08
1.535538478e-08
-1.213697213e-08
-1.700839657e-08
1.436625976e-08
2.01601936e-08
-1.641216751e-08
-1.975726324e-08
1.809042229e-08
2.180070745e-08
-1.95731634e-08
-1.879963902e-08
2.114976931e-08
2.088273177e-08
-2.315615808e-08
-1.712884825e-08
2.61665912e-08
2.151051424e-08
-3.065818889e-08
-2.024813066e-08
3.663827856e-08
2.72269141e-08
-4.387344571e-08
-2.854271093e-08
5.212226205e-08
3.719151694e-08
-6.112754919e-08
-4.039346528e-08
7.054026158e-08
4.926774749e-08
-7.987279798e-08
-5.438988508e-08
8.849366574e-08
6.101637009e-08
-9.565334311e-08
-6.745132391e-08
1.005390704e-07
6.871249409e-08
-1.02356502e-07
-7.464348806e-08
1.004447892e-07
6.81044985e-08
-9.441989898e-08
-7.055144242e-08
8.43242258e-08
5.65756108e-08
-7.075382969e-08
-5.277566507e-08
5.491112867e-08
3.613215317e-08
-3.852136191e-08
-2.665443393e-08
2.35635427e-08
1.479206903e-08
-1.181064108e-08
-5.788735378e-09
4.278136086e-09
2.279606787e-09
-7.927586933e-10
6.329470777e-14
-3.517585259e-20
-8.131111418e-13
8.051173e-13
-9.61842654e-10
7.835199223e-10
-5.218296424e-09
3.25429079e-09
-1.628856879e-09
4.195943331e-10
-2.310464214e-09
-1.879530407e-09
1.684905236e-09
2.37560505e-10
-9.033176485e-10
6.86416074e-12
2.924506609e-10
3.559577042e-11
-2.836931693e-10
1.083328203e-11
2.859773722e-10
3.73243269e-11
-2.981220103e-10
1.370044132e-11
3.18752049e-10
5.286430792e-11
-3.48791245e-10
4.763513929e-11
3.939542537e-10
8.350978266e-11
-4.599328461e-10
1.079269988e-10
5.257286387e-10
1.128909502e-11
-4.946946731e-10
1.154740741e-10
4.231369014e-10
1.145343952e-11
-3.191522037e-10
7.547642162e-11
2.166091069e-10
3.122711608e-13
-1.657034236e-10
7.932750209e-11
2.113615079e-10
8.149217181e-12
-3.803971456e-10
1.126776815e-10
7.034955873e-10
6.122362458e-12
-1.470261851e-09
-7.178151936e-09
3.76068243e-09
5.380164468e-09
-9.156752444e-09
-1.484687442e-08
1.160395472e-08
2.055370409e-08
-1.598787212e-08
-1.82104407e-08
2.342105876e-08
-2.447774227e-09
-2.206903696e-08
-2.342730268e-08
2.483625643e-08
2.6617178e-08
-2.737024611e-08
-2.418276635e-08
2.974563031e-08
2.702405595e-08
-3.243389822e-08
-2.409718106e-08
3.582177842e-08
2.836117578e-08
-4.017319749e-08
-2.711492557e-08
4.561612976e-08
3.33679979e-08
-5.205300567e-08
-3.472051001e-08
5.917115911e-08
4.180498251e-08
-6.654933359e-08
-4.51102004e-08
7.373724631e-08
5.122686657e-08
-8.026167012e-08
-5.56731484e-08
8.561348036e-08
5.88274664e-08
-8.926616256e-08
-6.345978038e-08
9.072246562e-08
6.178823744e-08
-8.957975653e-08
-6.505001498e-08
8.560189678e-08
5.774970566e-08
-7.878909272e-08
-5.789620583e-08
6.943192389e-08
4.62108216e-08
-5.813234525e-08
-4.235357915e-08
4.577473264e-08
2.975832599e-08
-3.34317776e-08
-2.30837567e-08
2.220500512e-08
1.377236292e-08
-1.3020357e-08
-7.58697748e-09
6.423337985e-09
3.56364505e-09
-2.44327246e-09
-8.007749433e-10
5.970254237e-10
2.627155477e-10
-6.670487932e-11
2.131842284e-22
6.322909379e-22
1.385759862e-21
-2.449503297e-21
-1.646522715e-09
2.613763105e-09
-1.113039102e-08
5.392480512e-09
-5.158622989e-10
9.60881284e-10
-2.345155672e-09
-1.298925547e-10
1.092913495e-09
2.475316366e-10
-6.326549425e-10
-6.584171905e-11
4.641058566e-10
1.395793715e-10
-4.027149405e-10
-6.587282962e-11
3.801820482e-10
1.408214548e-10
-3.727959447e-10
-7.282050299e-11
3.722881399e-10
1.561036194e-10
-3.766768854e-10
-7.469077086e-11
3.880701322e-10
1.644720851e-10
-4.128510422e-10
-5.679189042e-11
4.598241248e-10
1.947476851e-10
-5.387462561e-10
-1.18265327e-10
6.112172709e-10
3.278872136e-10
-7.304330339e-10
-1.597071547e-10
9.602710682e-10
7.580727906e-10
-1.400343907e-09
-4.048838452e-10
2.165287223e-09
1.931779898e-09
-3.387476417e-09
-1.492323338e-09
5.273991997e-09
4.947204656e-09
-8.374836165e-09
-9.250470518e-09
1.419985797e-08
1.557200535e-08
-2.734856861e-08
-2.695117171e-08
5.887599234e-08
4.712113139e-08
-9.757257978e-08
-8.150854714e-09
8.68338406e-08
7.40658575e-08
-2.733960162e-08
-3.03334126e-08
2.697496774e-08
3.964976274e-08
-4.432735657e-08
-3.078288982e-08
4.637410195e-08
3.488493795e-08
-4.920560822e-08
-3.335744589e-08
5.329751418e-08
3.849103943e-08
-5.838074247e-08
-3.953455808e-08
6.389664083e-08
4.484913701e-08
-6.935445053e-08
-4.759533341e-08
7.432757489e-08
5.140458329e-08
-7.838531845e-08
-5.480452127e-08
8.113424478e-08
5.555283877e-08
-8.223356227e-08
-5.856133102e-08
8.14143136e-08
5.524678633e-08
-7.851715191e-08
-5.673050185e-08
7.352382929e-08
4.93818763e-08
-6.658964385e-08
-4.838308368e-08
5.80557627e-08
3.84198544e-08
-4.843854133e-08
-3.479837367e-08
3.83878638e-08
2.478642823e-08
-2.861594787e-08
-1.966721991e-08
1.980203305e-08
1.221913573e-08
-1.24874218e-08
-7.649435061e-09
6.983552929e-09
3.929429167e-09
-3.319241189e-09
-1.515847424e-09
1.250126139e-09
5.882721978e-10
-3.376881544e-10
-9.108072151e-11
6.282409844e-11
3.58896645e-11
-8.225621041e-12
-4.541972931e-23
1.166745666e-15
3.476087912e-15
5.028351242e-15
-1.969572191e-09
7.293421477e-10
-5.916323511e-09
5.560531687e-09
-1.333339229e-09
1.276242218e-09
-4.351521256e-09
-5.531328451e-10
3.034847157e-09
1.077176933e-09
-2.126227372e-09
-3.427985231e-10
1.672699407e-09
8.266546847e-10
-1.503477804e-09
-3.497873953e-10
1.444367094e-09
7.995943485e-10
-1.390320882e-09
-3.544216872e-10
1.320251455e-09
7.243892191e-10
-1.276321424e-09
-3.548514071e-10
1.320699281e-09
7.456488011e-10
-1.506124188e-09
-4.935596684e-10
1.875939683e-09
1.207149625e-09
-2.473287403e-09
-1.013217878e-09
3.339021482e-09
2.451063403e-09
-4.515121776e-09
-2.276226271e-09
6.04693077e-09
4.708198532e-09
-7.983188311e-09
-4.697201806e-09
1.039158608e-08
8.269985957e-09
-1.342974793e-08
-9.553810122e-09
1.745891234e-08
1.465119709e-08
-2.30295637e-08
-2.126897471e-08
3.049702821e-08
2.707626531e-08
-3.942492097e-08
-4.335566965e-08
4.923594792e-08
4.245612043e-08
-6.114645456e-08
-8.677900825e-08
6.94470284e-08
6.531182517e-08
-5.070896118e-08
-3.803742417e-08
5.199298787e-08
3.784412162e-08
-5.437279141e-08
-3.823573034e-08
5.817746522e-08
4.124504146e-08
-6.302735282e-08
-4.324596708e-08
6.788358062e-08
4.731498397e-08
-7.245326679e-08
-4.872347704e-08
7.698315861e-08
5.117522192e-08
-8.091133172e-08
-5.287898743e-08
8.212460803e-08
5.204504391e-08
-7.87023869e-08
-5.362853068e-08
7.275221804e-08
4.953241131e-08
-6.885194298e-08
-4.963394295e-08
6.345830328e-08
4.267426894e-08
-5.676001117e-08
-4.09244746e-08
4.907182291e-08
3.23939213e-08
-4.080867965e-08
-2.900299258e-08
3.244717905e-08
2.082199594e-08
-2.447587685e-08
-1.671473287e-08
1.734192116e-08
1.0642653e-08
-1.139310404e-08
-7.117095431e-09
6.818362055e-09
3.867160669e-09
-3.624474883e-09
-1.854631834e-09
1.652250363e-09
8.08768823e-10
-6.232201679e-10
-2.20976898e-10
2.013263214e-10
8.96465663e-11
-7.111699635e-11
-1.339508723e-11
4.063789325e-11
9.785359751e-12
-3.671701057e-11
1.603895992e-11
-3.686966985e-11
3.264527974e-11
1.335360534e-11
-4.001898858e-10
-1.373463582e-09
2.314129217e-09
-1.027406103e-09
8.0816869e-10
-3.551790592e-09
-1.658557091e-09
4.509020653e-09
2.222281436e-09
-5.150185528e-09
-1.764042233e-09
5.529404361e-09
3.295943995e-09
-5.604359952e-09
-1.685885443e-09
5.342468584e-09
3.31550733e-09
-4.860387122e-09
-1.431793958e-09
4.403767258e-09
2.756369391e-09
-4.219650341e-09
-1.529209205e-09
4.47061311e-09
2.90309484e-09
-5.224038076e-09
-2.505544261e-09
6.463410745e-09
4.383745748e-09
-8.110161265e-09
-4.563158649e-09
1.007696126e-08
7.096301352e-09
-1.232601477e-08
-7.688543701e-09
1.489285852e-08
1.089118174e-08
-1.788851819e-08
-1.221566146e-08
2.150882428e-08
1.6304306e-08
-2.604439627e-08
-1.987592542e-08
3.183364468e-08
2.496296219e-08
-3.909960276e-08
-3.271788672e-08
4.763575493e-08
3.77167329e-08
-5.640718386e-08
-4.499940494e-08
6.359401207e-08
4.870789084e-08
-6.763068562e-08
-5.101492259e-08
6.780687207e-08
5.016023285e-08
-6.397194768e-08
-4.039086894e-08
6.291376274e-08
4.544915559e-08
-6.491132226e-08
-4.446042285e-08
7.037177602e-08
4.969163533e-08
-7.8342283e-08
-4.992656631e-08
8.753720549e-08
5.77136291e-08
-9.607179997e-08
-5.125539223e-08
9.993266896e-08
6.115647528e-08
-9.529373785e-08
-4.906528471e-08
8.5454061e-08
5.270165545e-08
-8.082331292e-08
-4.382171208e-08
8.541069464e-08
4.420548594e-08
-8.226757559e-08
-3.490909562e-08
7.458108707e-08
2.37110383e-08
-6.627046512e-08
-2.426690979e-08
5.684463952e-08
1.14704649e-08
-4.699986398e-08
-1.380599588e-08
3.69630311e-08
5.463243984e-10
-2.668645781e-08
-5.552395433e-09
1.650815043e-08
-2.832025354e-09
-8.835942704e-09
-1.70645512e-09
4.113295081e-09
-7.936200248e-10
-1.653944559e-09
-3.087742465e-10
5.790606826e-10
-8.824752101e-11
-1.811736837e-10
-3.904191414e-11
6.199897577e-11
-3.84174651e-12
-1.117542892e-11
9.730599555e-12
-9.645681793e-13
-4.854976814e-12
6.282269199e-12
1.111472666e-11
-8.033080262e-12
3.250729171e-11
-1.270348558e-11
1.098041186e-09
-6.141455306e-10
4.582775912e-10
-2.089713407e-09
-2.542264486e-09
4.179170076e-09
2.593904254e-09
-7.449077409e-09
-5.301956361e-09
1.088059785e-08
7.417444027e-09
-1.319315718e-08
-5.924283383e-09
1.385645989e-08
9.412723532e-09
-1.327219618e-08
-4.994670773e-09
1.230428281e-08
8.316104675e-09
-1.170004219e-08
-5.026097612e-09
1.18337586e-08
8.064634727e-09
-1.275508724e-08
-6.801462799e-09
1.43388193e-08
9.915091077e-09
-1.643044414e-08
-9.935227411e-09
1.895727907e-08
1.341555224e-08
-2.197136404e-08
-1.431800821e-08
2.562521616e-08
1.861805851e-08
-3.012062049e-08
-2.066887844e-08
3.565555845e-08
2.632064356e-08
-4.237796234e-08
-3.015385288e-08
5.034258914e-08
3.70960298e-08
-5.948621512e-08
-4.258406049e-08
6.960526657e-08
4.997396612e-08
-8.02873556e-08
-5.332627719e-08
9.086736732e-08
6.199855685e-08
-1.0069775e-07
-5.606517122e-08
1.098642716e-07
6.962148779e-08
-1.197603617e-07
-5.469496498e-08
1.328663502e-07
7.458966766e-08
-1.512597333e-07
-5.865016288e-08
1.758015582e-07
8.040638864e-08
-2.059639068e-07
-6.69605904e-08
2.404053773e-07
8.427888385e-08