/*--------------------------------*- C++ -*----------------------------------*\
| =========                 |                                                 |
| \\      /  F ield         | OpenFOAM: The Open Source CFD Toolbox           |
|  \\    /   O peration     | Version:  2.1.x                                 |
|   \\  /    A nd           | Web:      www.OpenFOAM.org                      |
|    \\/     M anipulation  |                                                 |
\*---------------------------------------------------------------------------*/
FoamFile
{
    version     2.0;
    format      ascii;
    class       volVectorField;
    location    "1.3";
    object      Uf;
}
// * * * * * * * * * * * * * * * * * * * * * * * * * * * * * * * * * * * * * //

dimensions      [0 1 -1 0 0 0 0];

internalField   nonuniform List<vector> 
2828
(
(-0.2285600955 0 -0.1218882445)
(-0.1274120883 0 -0.1092780155)
(-0.1005205666 0 -0.09303194149)
(-0.1166395869 0 -0.1250180855)
(-0.1067057681 0 -0.08650689277)
(-0.3058642566 0 -0.1428388633)
(-0.379640602 0 -0.2812180438)
(-0.3832299686 0 -0.2043509945)
(-1.016381291 0 -0.254184406)
(-0.2448385653 0 -0.1015266725)
(-0.1304402434 0 -0.09949483189)
(-0.1218621373 0 -0.08546973678)
(-0.1201074831 0 -0.09650301576)
(-0.09074086019 0 -0.09725874367)
(-0.09116492415 0 -0.05349094256)
(-0.1366327395 0 -0.1293770346)
(-0.1680416296 0 -0.02155089625)
(-0.9403457953 0 0.3074265477)
(-0.6886108828 0 -0.09914635128)
(-0.3749137474 0 -0.0532743986)
(-0.369990728 0 -0.2772210002)
(-0.5161678375 0 -0.281640032)
(-4.142418884 0 -1.413084278)
(-1.599553344 0 0.7964428429)
(-0.1374409067 0 -0.08790672688)
(-0.13476239 0 -0.05965405812)
(-0.1295348146 0 -0.02943614796)
(-0.005209249152 0 -0.1292740002)
(-0.01464975855 0 -0.09051689957)
(0.07395769197 0 -0.1674773656)
(0.2410338732 0 -0.1162212737)
(0.3114094522 0 -0.08138428166)
(0.2048531149 0 0.002319546496)
(-0.3562729822 0 -0.1898314701)
(-0.8847327674 0 0.2694580782)
(-0.5237156499 0 -0.08811863236)
(-0.3827401603 0 -0.1041061769)
(-0.3447066113 0 -0.2749595479)
(-1.889663806 0 -1.922598166)
(-3.726417472 0 -2.894444396)
(-2.834025165 0 2.314178403)
(-0.6891259047 0 0.5483006791)
(-0.08357999972 0 -0.02091066845)
(-0.05367345952 0 -0.06230850068)
(-0.2096075456 0 -0.04092423845)
(0.04743293186 0 -0.1320125864)
(0.2166381792 0 -0.1649924211)
(0.37271609 0 -0.2430985524)
(0.5904627699 0 -0.4477302138)
(0.8551822911 0 -0.7315579417)
(0.9705260161 0 -0.7883953622)
(-0.6090709339 0 -0.5326415055)
(-0.3596018503 0 -0.2508376471)
(-0.5030223117 0 -0.252635792)
(-0.629274847 0 0.1417489874)
(-0.3689486477 0 -0.1185191374)
(-0.3262743217 0 -0.2366843046)
(-0.3000994016 0 -0.2691533179)
(-0.333782303 0 -0.2012363052)
(-0.3463978321 0 -0.1359782332)
(-0.2593289049 0 -0.08768335559)
(-0.2096377574 0 -0.09174073682)
(-0.06463757193 0 -0.06180563768)
(-0.04851391786 0 -0.000471491978)
(-1.141253155 0 0.04717354309)
(0.2130177325 0 -0.1934036087)
(0.3589250788 0 -0.2689642936)
(0.5298529319 0 -0.4148094847)
(0.7064100112 0 -0.5873302082)
(0.8539224146 0 -0.7322540113)
(0.9625847508 0 -0.8569063748)
(1.094605477 0 -1.004445174)
(-0.4926355254 0 0.5553499216)
(-0.2425886096 0 -0.308336755)
(-0.2814746404 0 -0.2803526621)
(-0.313475705 0 -0.2501291639)
(-0.2118913751 0 -0.2434016712)
(-0.212170797 0 -0.244266823)
(-0.2316801719 0 -0.3270047595)
(-0.2505683217 0 -0.2876550484)
(-0.2945827167 0 -0.231397709)
(-0.2738347314 0 -0.1384421186)
(-0.1892140366 0 -0.1483993936)
(-0.1861441851 0 -0.153611547)
(-0.103751893 0 -0.1130197059)
(-0.2417903348 0 -0.44535128)
(-1.748984285 0 0.004123681788)
(0.008134681893 0 0.1343065209)
(0.4849716735 0 -0.399274425)
(0.6217187775 0 -0.5178025835)
(0.7504397983 0 -0.6500680505)
(0.8477461941 0 -0.7616062714)
(0.9078260264 0 -0.8550180764)
(0.891318223 0 -0.8756043252)
(0.6572167038 0 -0.7864214276)
(0.09463688055 0 0.4900730463)
(-0.1608244153 0 -0.3246277791)
(-0.1603873973 0 -0.3284530639)
(-0.146987275 0 -0.3379547878)
(-0.09984328657 0 -0.3232904863)
(-0.07182601687 0 -0.31538427)
(-0.1108081071 0 -0.3311401227)
(-0.1390453842 0 -0.3374324436)
(-0.1765569444 0 -0.3257456782)
(-0.234435901 0 -0.2886082836)
(-0.1687395608 0 -0.1604897545)
(-0.09334281919 0 -0.1649967598)
(-0.07901983228 0 -0.1310607978)
(-0.02397813694 0 -0.08931919077)
(0.1153904672 0 -0.1043449716)
(1.346751658 0 -0.04684168546)
(0.350616062 0 -0.01320946177)
(0.5491601637 0 -0.4687871666)
(0.6720952082 0 -0.5862269857)
(0.7563807446 0 -0.6840571357)
(0.8026797788 0 -0.753881268)
(0.7977673689 0 -0.781087297)
(0.7114693649 0 -0.7398168964)
(0.5525999139 0 -0.6451998306)
(0.5322818758 0 0.5228026734)
(-0.1658721252 0 -0.3962428621)
(-0.1492577171 0 -0.3774241507)
(-0.1491629895 0 -0.4234715045)
(-0.1393648137 0 -0.4834454406)
(-0.1049735135 0 -0.4957543411)
(-0.04192006244 0 -0.4350108254)
(0.01444038954 0 -0.313137918)
(-0.02834347159 0 -0.3329411891)
(-0.06876684494 0 -0.3809687474)
(-0.1343418569 0 -0.3901341093)
(-0.5223916669 0 -0.4254278737)
(0.07775277641 0 -0.1370174985)
(0.01913718738 0 -0.1093861148)
(0.07663776402 0 -0.02769671142)
(0.1460000669 0 -0.1645952582)
(0.7590223433 0 -0.1527636553)
(0.4763026342 0 -0.3529240196)
(0.610800985 0 -0.537688912)
(0.6848388255 0 -0.6200998411)
(0.7250848122 0 -0.6784915623)
(0.7239883892 0 -0.7000888208)
(0.6692712922 0 -0.6730335127)
(0.5407734225 0 -0.5803009983)
(0.3578492019 0 -0.4190097608)
(0.4194625655 0 0.3020513634)
(0.3301148155 0 0.3434912242)
(-0.1318870596 0 -0.4204038262)
(-0.1028404864 0 -0.3972397179)
(-0.07253398427 0 -0.4608448601)
(-0.06304518541 0 -0.5437683941)
(-0.1008428719 0 -0.5920117427)
(-0.1295348947 0 -0.5764607362)
(-0.09772122251 0 -0.5144156069)
(-0.03413141739 0 -0.4645620519)
(0.07327211632 0 -0.5091574427)
(-1.078900786 0 -1.113755154)
(-1.684228064 0 -0.9131351812)
(0.07840315822 0 -0.2088270094)
(0.1187500394 0 -0.1456243875)
(0.1798237035 0 -0.07155727682)
(0.2542715612 0 -0.2743560868)
(0.4122838158 0 -0.3104135253)
(0.5463124179 0 -0.4330874969)
(0.629462287 0 -0.5694516081)
(0.6637477715 0 -0.6181391505)
(0.6640056153 0 -0.6359340486)
(0.6227350938 0 -0.6139985416)
(0.5292428978 0 -0.541205626)
(0.3706469001 0 -0.3996406875)
(0.1912388262 0 -0.1573426845)
(0.5305949537 0 -0.002332782945)
(2.006172824 0 -0.4625823776)
(0.844273885 0 -0.04830941119)
(-0.07813722896 0 -0.5044624123)
(-0.06166905526 0 -0.462442573)
(-0.03986084857 0 -0.4021521188)
(-0.1795706558 0 -0.6526440392)
(-0.5195937193 0 -1.140249016)
(-0.6602496473 0 -1.180070408)
(-0.4993342755 0 -0.8690877795)
(-0.1159269382 0 -0.4850680875)
(-0.06908950121 0 -0.4694030187)
(-0.4803739226 0 -1.708611978)
(-1.202748664 0 -2.170234183)
(-1.129031247 0 -0.9348467982)
(0.1667195748 0 -0.2344528796)
(0.2117782702 0 -0.1621806162)
(0.2472742571 0 -0.1437114138)
(0.3536588078 0 -0.3349100177)
(0.464122243 0 -0.3727958815)
(0.5756087965 0 -0.4710228446)
(0.6186197596 0 -0.5719468401)
(0.6181710919 0 -0.5852642131)
(0.5895525876 0 -0.5678519312)
(0.5285085528 0 -0.5234192251)
(0.5224179437 0 -0.6234100322)
(1.127060068 0 -1.633404172)
(1.860118945 0 -2.73742976)
(2.272745666 0 -3.358077686)
(2.457193694 0 -3.631350184)
(2.532674696 0 -3.73400854)
(-0.1161766762 0 -0.579269142)
(-0.2989485933 0 -0.934653726)
(-0.6051961014 0 -1.712157579)
(-0.8560435374 0 -2.235904374)
(-1.006544436 0 -2.274171462)
(-1.008517091 0 -1.790673417)
(-0.8400994121 0 -1.165826271)
(-0.6174306664 0 -0.8146611694)
(-0.3904385649 0 -0.5911494028)
(0.2630203827 0 -0.4864739669)
(0.9732616706 0 -1.373362708)
(1.305772252 0 -0.7502443941)
(0.2369358391 0 -0.01966712788)
(0.2568282456 0 -0.1797337657)
(0.3042433513 0 -0.2250506111)
(0.4216422385 0 -0.3572775088)
(0.5115872167 0 -0.4022522495)
(0.5834569335 0 -0.479793323)
(0.5958237312 0 -0.5563723123)
(0.5896970762 0 -0.5819550736)
(0.6833138958 0 -0.8152647496)
(1.117873047 0 -1.589746693)
(1.673557585 0 -2.465791385)
(2.060651507 0 -3.047683283)
(2.294802363 0 -3.395082678)
(2.429735711 0 -3.589506937)
(2.506615426 0 -3.688432822)
(2.551816405 0 -3.731309499)
(-0.4419825662 0 -1.577899414)
(-0.5232240253 0 -1.761004372)
(-0.4927939096 0 -1.941075318)
(-0.4927257632 0 -2.170799425)
(-0.4215117333 0 -2.150365069)
(-0.4201414462 0 -1.908819936)
(-0.5537955653 0 -1.482507274)
(-0.5969724248 0 -0.781790588)
(-0.3781904519 0 -0.4279962463)
(-0.2905787551 0 -0.3284590622)
(0.3658680887 0 -0.4048877832)
(1.220256996 0 -0.6214398366)
(0.3004214049 0 -0.2531879692)
(0.3207162981 0 -0.2172680794)
(0.3781435938 0 -0.2660569583)
(0.4731094293 0 -0.367546917)
(0.5513120293 0 -0.4261572947)
(0.6076454796 0 -0.5247923993)
(0.6940126958 0 -0.7918998203)
(0.9907420781 0 -1.348839954)
(1.436002437 0 -2.089007743)
(1.825337971 0 -2.691719998)
(2.094474097 0 -3.092908138)
(2.270457496 0 -3.348361739)
(2.383243108 0 -3.503992662)
(2.453285505 0 -3.589421144)
(2.491846839 0 -3.623919217)
(2.496294582 0 -3.611636294)
(0.2568323205 0 0.8688580755)
(0.2806540517 0 -2.423749508)
(0.1616034003 0 -1.774000658)
(-0.2198632062 0 -0.882799678)
(-0.3252989785 0 -1.379006562)
(-0.2435256922 0 -1.48256888)
(-0.1137833853 0 -1.491966951)
(-0.02110770247 0 -1.49653878)
(-0.3154065943 0 -1.288459716)
(-0.449271391 0 -0.5550393866)
(-0.4961814191 0 -0.4073072535)
(-0.3041753525 0 -0.3588895699)
(0.3399759522 0 -0.2710619982)
(0.3526965009 0 -0.2755666163)
(0.395072895 0 -0.2702268109)
(0.4524834343 0 -0.3185430877)
(0.5453193682 0 -0.4294134215)
(0.6481747869 0 -0.588154668)
(0.8431806601 0 -1.025851363)
(1.214231334 0 -1.722478519)
(1.578982423 0 -2.309488682)
(1.869134694 0 -2.752792525)
(2.077057938 0 -3.059424552)
(2.219759606 0 -3.263022328)
(2.314109093 0 -3.390705903)
(2.370465555 0 -3.459030279)
(2.391358404 0 -3.474718258)
(2.364525022 0 -3.42459324)
(2.218637006 0 -3.207769025)
(-0.1365937193 0 -0.070647481)
(0.2255906567 0 -0.7117801891)
(0.4647319306 0 -1.387850916)
(0.5840696383 0 -1.507602529)
(-0.232690714 0 -0.8364537532)
(-0.280870579 0 -0.82356689)
(-0.1619062496 0 -0.8260773259)
(0.06630286566 0 -0.9735464155)
(0.2188963654 0 -1.051583899)
(0.1454420002 0 -0.9857921444)
(-0.2180854615 0 -0.7749960065)
(-0.4940114961 0 -0.4785036679)
(-0.1357021742 0 -0.3469856313)
(0.2178031027 0 -0.2790941594)
(0.3964235921 0 -0.2770708846)
(0.483035863 0 -0.3645047688)
(0.5810145857 0 -0.489701712)
(0.7291083515 0 -0.7497178717)
(0.9731445147 0 -1.237374969)
(1.33019837 0 -1.901738566)
(1.642544559 0 -2.406385453)
(1.869980375 0 -2.749659205)
(2.036444371 0 -2.992802007)
(2.153168751 0 -3.157372884)
(2.228977262 0 -3.258693831)
(2.268073482 0 -3.304720897)
(2.267580812 0 -3.293622172)
(2.210705954 0 -3.203639883)
(2.040895706 0 -2.954214919)
(1.545403744 0 -2.236051188)
(-0.06229346097 0 -0.07128776215)
(0.107470191 0 -1.13146507)
(0.1261597552 0 -0.9757883784)
(0.1339948398 0 -1.030831257)
(0.09957286665 0 -1.473230624)
(0.1131678291 0 -1.733998332)
(0.06815041496 0 -1.464223531)
(-0.07614913557 0 -0.8746763656)
(-0.1425873735 0 -0.8352331203)
(-0.2077489006 0 -0.8788337188)
(-0.2772423492 0 -0.9610931667)
(-0.3653207992 0 -1.065217216)
(-0.3516336822 0 -0.6914634676)
(0.2591125164 0 -0.2071410163)
(0.4944494008 0 -0.3719712611)
(0.6078202274 0 -0.6652748017)
(0.8338367578 0 -0.9453739192)
(1.087042771 0 -1.436899991)
(1.396289152 0 -1.998500197)
(1.662307012 0 -2.433975519)
(1.849667994 0 -2.715860488)
(1.98346452 0 -2.909521517)
(2.076495279 0 -3.039446955)
(2.132944844 0 -3.113679707)
(2.152941146 0 -3.134137032)
(2.130403477 0 -3.093744673)
(2.04760361 0 -2.968344448)
(1.860961505 0 -2.69547574)
(1.466222188 0 -2.123509494)
(0.7130340823 0 -1.034198066)
(0.05697673085 0 0.07713449634)
(0.1802508427 0 -1.153771923)
(0.1948478003 0 -1.207036166)
(0.2239604282 0 -1.096585301)
(0.310052279 0 -1.135461162)
(0.4269010563 0 -1.162180846)
(0.4778037573 0 -1.070639667)
(0.4378880768 0 -1.027996876)
(0.4054762083 0 -0.985421121)
(0.401080286 0 -0.8027092834)
(0.4830872656 0 -0.6546555108)
(0.5195215797 0 -0.626409803)
(0.5022054882 0 -0.592271437)
(0.5654118297 0 -0.5987128613)
(0.8367125842 0 -1.546405725)
(1.122717421 0 -1.418228076)
(1.161807557 0 -1.636114141)
(1.425732896 0 -2.075227252)
(1.659701985 0 -2.427992409)
(1.817523765 0 -2.664454843)
(1.924828855 0 -2.818348559)
(1.994671244 0 -2.915669171)
(2.031147452 0 -2.962007603)
(2.03135496 0 -2.955427462)
(1.987622212 0 -2.886114488)
(1.88316603 0 -2.730711365)
(1.684844483 0 -2.441512541)
(1.333731664 0 -1.93267154)
(0.776524687 0 -1.126085407)
(0.3895161131 0 -0.5645446423)
(0.01770855844 0 0.04383792557)
(0.1397732238 0 -0.8414452799)
(0.225774191 0 -1.011164801)
(0.3365972538 0 -1.014885976)
(0.4401044117 0 -0.955468855)
(0.4862696789 0 -0.9479011829)
(0.4856886664 0 -0.9570816408)
(0.489840878 0 -0.9377790543)
(0.5345764521 0 -0.8988011361)
(0.6168004898 0 -0.9017785914)
(0.6752532039 0 -0.9230392284)
(0.6997888033 0 -0.9483642167)
(0.7551437924 0 -0.9923599265)
(0.882132136 0 -1.125803371)
(1.141482304 0 -1.518648809)
(1.771006134 0 -1.796707227)
(1.447600335 0 -2.209233281)
(1.63449637 0 -2.413065228)
(1.780403047 0 -2.598228226)
(1.868682472 0 -2.726599751)
(1.916570582 0 -2.792800849)
(1.935745591 0 -2.810016292)
(1.914434577 0 -2.776841229)
(1.850794123 0 -2.680634169)
(1.727888838 0 -2.500866436)
(1.521223373 0 -2.202459059)
(1.197843549 0 -1.735539305)
(0.7455864252 0 -1.081192631)
(0.3587423739 0 -0.5184678661)
(0.2280380282 0 -0.2601607973)
(-0.03986596952 0 0.01188285381)
(0.1312737365 0 -0.6308766944)
(0.261069773 0 -0.8482127281)
(0.4564461757 0 -0.9902569379)
(0.5989344815 0 -1.072257514)
(0.6581090965 0 -1.139939555)
(0.668840484 0 -1.147480937)
(0.6840361933 0 -1.129098886)
(0.7281767001 0 -1.147855486)
(0.7835366984 0 -1.182177158)
(0.8379915103 0 -1.223934073)
(0.9081331804 0 -1.297961851)
(1.021966138 0 -1.425214083)
(1.189127766 0 -1.656018663)
(1.41081907 0 -2.023174483)
(1.630707112 0 -2.338937199)
(1.740922169 0 -2.480905059)
(1.799598716 0 -2.552205749)
(1.830160775 0 -2.74543658)
(1.815452352 0 -2.952418452)
(1.754802802 0 -2.639288068)
(1.72466159 0 -2.238698939)
(1.580674269 0 -2.416028362)
(1.399974658 0 -2.171800938)
(1.055058182 0 -1.815955291)
(0.4923573222 0 -1.370944297)
(0.3277876274 0 -0.9175344977)
(0.1570317306 0 -0.4451934544)
(0.05824064247 0 -0.1684164086)
(-0.1085774524 0 0.03364637284)
(-0.05681882832 0 0.07489388203)
(0.2972652496 0 -0.722924546)
(0.4872871453 0 -0.8553406732)
(0.6846509837 0 -1.092646426)
(0.803438979 0 -1.26764747)
(0.8620380345 0 -1.35323783)
(0.8869001445 0 -1.379785249)
(0.9165560595 0 -1.413668352)
(0.9694653907 0 -1.468555413)
(1.04896341 0 -1.553845999)
(1.155844491 0 -1.681164457)
(1.286562294 0 -1.853414495)
(1.437367282 0 -2.081108128)
(1.591406998 0 -2.335118627)
(1.66984548 0 -2.502262075)
(1.562966122 0 -2.52305562)
(1.277006076 0 -2.470500566)
(0.969216101 0 -2.392182936)
(0.8044141986 0 -2.261184024)
(0.7284196147 0 -1.952435391)
(-0.5479212969 0 -1.467940008)
(-1.191231273 0 -1.536589047)
(-1.344916811 0 -1.596102996)
(-1.354567326 0 -1.565147818)
(-1.256480887 0 -1.435301118)
(-1.012843612 0 -1.153047394)
(-0.5854939622 0 -0.6597099461)
(-0.2355068541 0 -0.1889345082)
(-0.1327279774 0 -0.01666733429)
(-0.09767748727 0 0.08858733971)
(0.352661398 0 -0.5911912618)
(0.5637690166 0 -0.8464786372)
(0.7731257841 0 -1.143272503)
(0.9262506534 0 -1.372543263)
(1.025704945 0 -1.532686626)
(1.08470585 0 -1.645951519)
(1.135930105 0 -1.751517144)
(1.200410802 0 -1.866293551)
(1.272745791 0 -1.992966958)
(1.339128534 0 -2.128739321)
(1.386634183 0 -2.264049404)
(1.40204085 0 -2.378458722)
(1.370325971 0 -2.439494528)
(1.274595544 0 -2.419971939)
(1.107320223 0 -2.317290262)
(0.8867205032 0 -2.145090739)
(0.6077969809 0 -1.885579482)
(-0.7673402444 0 -0.8271241605)
(-1.053272615 0 -1.084375587)
(-1.197103892 0 -1.337413039)
(-1.346430558 0 -1.54392288)
(-1.465567282 0 -1.685150659)
(-1.530206749 0 -1.755000381)
(-1.523273599 0 -1.740875335)
(-1.405666216 0 -1.601459958)
(-1.076219291 0 -1.22306584)
(-0.452593066 0 -0.4813370225)
(-0.1381447792 0 -0.1060940681)
(-0.09032793597 0 0.0863478313)
(0.6004234805 0 -0.901836227)
(0.7653806496 0 -1.125906771)
(0.9370566745 0 -1.374440207)
(1.080321526 0 -1.604543763)
(1.182736435 0 -1.811062938)
(1.245170936 0 -1.989044429)
(1.28380516 0 -2.130567016)
(1.30963561 0 -2.23491552)
(1.321055604 0 -2.308424782)
(1.314157965 0 -2.357006869)
(1.2864792 0 -2.380116619)
(1.235167982 0 -2.368878064)
(1.156127844 0 -2.311484464)
(1.042132205 0 -2.19887824)
(0.8766935619 0 -2.016959372)
(0.6121963029 0 -1.699961175)
(-0.423890401 0 -0.3400220644)
(-0.4779552138 0 -0.4161783969)
(-0.6887140273 0 -0.7296777263)
(-0.9684156876 0 -1.094404398)
(-1.241021507 0 -1.430706404)
(-1.46320207 0 -1.691384404)
(-1.618107423 0 -1.864797519)
(-1.705631962 0 -1.956980016)
(-1.712959493 0 -1.956111441)
(-1.580196713 0 -1.79693822)
(-1.017681382 0 -1.152862714)
(-0.1225417713 0 -0.2547053779)
(0.9910248811 0 -1.519926894)
(1.117726528 0 -1.734691214)
(1.214776047 0 -1.932786175)
(1.274361048 0 -2.108579798)
(1.298556395 0 -2.246236772)
(1.299903325 0 -2.334200466)
(1.287415654 0 -2.37553946)
(1.26153586 0 -2.379085437)
(1.219276792 0 -2.350955801)
(1.157492834 0 -2.292108035)
(1.071559468 0 -2.196983318)
(0.9505627132 0 -2.049954511)
(0.7653074841 0 -1.808917348)
(0.3986755436 0 -1.302166775)
(-0.3415183855 0 -0.2553281666)
(-0.3202992607 0 -0.214137093)
(-0.3426477829 0 -0.2186446355)
(-0.40930183 0 -0.3125967176)
(-0.6232947114 0 -0.6201489869)
(-0.9661165757 0 -1.082114585)
(-1.327716333 0 -1.535512078)
(-1.604051806 0 -1.857989028)
(-1.791016004 0 -2.066902837)
(-1.90041817 0 -2.180831037)
(-1.927552877 0 -2.197125897)
(-1.770104982 0 -2.002914258)
(-0.04408393319 0 -0.2425175224)
(1.153105645 0 -1.882541185)
(1.223057312 0 -2.034526798)
(1.269936007 0 -2.169643318)
(1.287259368 0 -2.274673599)
(1.278375527 0 -2.341354371)
(1.251384491 0 -2.36538506)
(1.211486583 0 -2.349581127)
(1.157301251 0 -2.29785202)
(1.082821364 0 -2.209534145)
(0.9786155845 0 -2.07604997)
(0.8270071907 0 -1.872881891)
(0.5786636292 0 -1.52651873)
(-0.02165905649 0 -0.6763982592)
(-0.267550114 0 -0.2297186801)
(-0.2630562517 0 -0.2028969777)
(-0.2801262114 0 -0.1839055204)
(-0.2967065148 0 -0.166759753)
(-0.3142250306 0 -0.1584994992)
(-0.3466981827 0 -0.1814968825)
(-0.4926747407 0 -0.3910766597)
(-0.9103123593 0 -1.004296519)
(-1.409735543 0 -1.636666741)
(-1.75475935 0 -2.038761501)
(-1.973110169 0 -2.283075685)
(-2.093220282 0 -2.402776539)
(-2.146597111 0 -2.430159245)
(1.256141774 0 -2.196904109)
(1.264560898 0 -2.270628912)
(1.251030654 0 -2.311216624)
(1.21520559 0 -2.316738207)
(1.160564953 0 -2.284650999)
(1.089091124 0 -2.214909844)
(0.9983014225 0 -2.106013001)
(0.8809913292 0 -1.950667054)
(0.7236878879 0 -1.730429366)
(0.4912928075 0 -1.393584439)
(-0.3275500295 0 -0.3129140655)
(-0.2969466417 0 -0.2111502985)
(-0.2082604911 0 -0.1949942988)
(-0.2216961903 0 -0.1720046036)
(-0.2343019653 0 -0.1414968627)
(-0.2508036663 0 -0.114413919)
(-0.2802130578 0 -0.1213234283)
(-0.3124361379 0 -0.1359708157)
(-0.3408067964 0 -0.116938701)
(-0.3523160189 0 -0.1076538068)
(-0.7181373428 0 -0.7277724158)
(-1.39318703 0 -1.618919418)
(-1.902400197 0 -2.224640197)
(-2.131761275 0 -2.487073242)
(-2.226834299 0 -2.558772786)
(1.242678779 0 -2.257066773)
(1.221221426 0 -2.269633629)
(1.180930728 0 -2.256937496)
(1.118346308 0 -2.209838053)
(1.033839744 0 -2.124244402)
(0.9274708455 0 -1.996297665)
(0.7971155989 0 -1.819104141)
(0.6366210531 0 -1.576422399)
(0.4291132497 0 -1.226972049)
(0.1146464045 0 -0.712954415)
(-0.403499423 0 -0.3311360415)
(-0.5487227645 0 -0.2605276115)
(-0.1682429184 0 -0.1582768377)
(-0.1782681129 0 -0.1264775865)
(-0.1725921641 0 -0.0438040823)
(-0.1716419405 0 0.04098738423)
(-0.2213839862 0 0.003476855339)
(-0.2880620604 0 -0.1264932714)
(-0.3343237546 0 -0.1125508413)
(-0.3550485428 0 -0.07763574439)
(-0.2603598629 0 -0.08958030628)
(-0.4386221747 0 -0.1585811092)
(-0.5813099644 0 0.1012769699)
(-0.3398165168 0 -0.07554671232)
(1.155602014 0 -2.201155111)
(1.086933742 0 -2.137330938)
(0.9990903456 0 -2.039510643)
(0.8860311662 0 -1.894830641)
(0.7482752859 0 -1.694175548)
(0.5841465562 0 -1.421608732)
(0.3972245382 0 -1.064856484)
(0.2483986246 0 -0.7513459043)
(0.2291365586 0 -0.8791648946)
(0.4464039229 0 -1.500060319)
(0.9326174672 0 -1.841955269)
(0.3097808101 0 1.150888994)
(0.1773518184 0 0.8757291197)
(0.05343471306 0 0.61163452)
(0.001263397304 0 0.4489453357)
(-0.02064538331 0 0.3314020439)
(-0.2574814902 0 -0.09308159369)
(-0.3194661344 0 -0.1062779698)
(-0.3683916079 0 -0.06922094061)
(-0.2382232146 0 0.00289187042)
(-0.2298108907 0 -0.1400857681)
(-0.6464729385 0 0.09932007162)
(0.9782581972 0 -1.960738328)
(0.8661496265 0 -1.805292404)
(0.7247866868 0 -1.587972423)
(0.5638090031 0 -1.30642607)
(0.3931152955 0 -0.9736965802)
(0.2614901647 0 -0.700702831)
(0.2424840333 0 -0.667790765)
(0.3969408008 0 -0.8372201497)
(0.71254038 0 -0.9988380636)
(1.215587383 0 -0.9113912016)
(-0.08094597663 0 -0.169815632)
(-0.1814867085 0 -0.2155009659)
(-0.143701567 0 -0.1490058445)
(-0.07133035866 0 -0.07909362494)
(-0.09837203191 0 0.02428770876)
(-0.2374178286 0 -0.09621614521)
(-0.3021290178 0 -0.1006808597)
(-0.371266221 0 -0.06677955214)
(-0.2903573198 0 0.0006935654004)
(-0.1071047247 0 0.04164850684)
(0.5522055823 0 -1.220473578)
(0.3886114466 0 -0.9119075099)
(0.2690439407 0 -0.6512455592)
(0.2429057648 0 -0.5211379342)
(0.3153568536 0 -0.509702064)
(0.4533469249 0 -0.5210772046)
(0.6177045247 0 -0.4861527766)
(0.8420441072 0 -0.422618367)
(0.1611387192 0 -0.3685716129)
(0.2976374999 0 -0.4096768718)
(0.5023607144 0 -0.288357674)
(0.08027272343 0 0.01530745721)
(-0.02718775059 0 0.001003527432)
(-0.2530182282 0 -0.06093498243)
(-0.3084313944 0 -0.1105653701)
(-0.3679520116 0 -0.06586800496)
(-0.3305751387 0 0.01751667914)
(0.2772987239 0 -0.5998867508)
(0.2435887324 0 -0.4391350097)
(0.2906050167 0 -0.387090693)
(0.3353607261 0 -0.3478717896)
(0.4062978131 0 -0.3016504706)
(0.9445678526 0 -0.3345367996)
(1.505887387 0 -0.3573770128)
(0.7736215088 0 0.01680621951)
(0.3109868872 0 -0.2607076275)
(0.216016042 0 -0.09123116846)
(0.02902685951 0 -0.04974312985)
(0.05619941182 0 0.04471815385)
(-0.2166260792 0 -0.1332336623)
(-0.2241053676 0 0.005968891788)
(0.3006175686 0 -0.2819488568)
(0.3780498722 0 -0.259384923)
(1.077868883 0 -0.3412391426)
(1.644635617 0 -0.3738010068)
(0.2921340818 0 -0.1465946255)
(0.2473137957 0 -0.1536347723)
(0.07282062385 0 -0.09648506606)
(0.03037797635 0 -0.05677245413)
(0.152345023 0 0.05552813062)
(-0.3795164475 0 -0.2351650295)
(-0.3801725532 0 -0.2032324585)
(-0.3658947474 0 -0.17796082)
(-0.3677428788 0 -0.1535937716)
(-1.797665726 0 -0.2129539898)
(-0.4537911609 0 -0.1358503573)
(-0.2317939898 0 -0.1141295436)
(-0.1668776263 0 -0.1164978178)
(-0.1753475728 0 -0.1225396371)
(-0.1217814092 0 -0.1063841162)
(-0.09273356519 0 -0.0926597431)
(-0.09363735419 0 -0.09137751855)
(-0.1049820684 0 -0.09420201957)
(-0.1117943021 0 -0.1117817366)
(-0.113696943 0 -0.1179568417)
(-0.1069921089 0 -0.1154893768)
(-0.09378237651 0 -0.1084628556)
(-0.1107449541 0 -0.1103808751)
(-0.1027509078 0 -0.08705411932)
(-0.1199720722 0 -0.07192150509)
(-0.1148688314 0 -0.05603907873)
(-0.09661152033 0 -0.0398334611)
(-0.1420092348 0 -0.08602210252)
(-0.6533924459 0 -0.1852871645)
(-0.5498144841 0 -0.07658223863)
(-0.3147200513 0 -0.00131954888)
(-0.3626217529 0 -0.3679190537)
(-0.3648693468 0 -0.3406841481)
(-0.3775160763 0 -0.2829821888)
(-0.3847633773 0 -0.2378619466)
(-0.3789661841 0 -0.2410861439)
(-0.05678481015 0 -0.1484596736)
(0.0322295255 0 -0.1419997979)
(-0.1449925336 0 -0.1056400271)
(0.2208612645 0 -0.1334436837)
(0.2830475546 0 -0.1431814987)
(-0.1948705858 0 0.03609497874)
(0.3120697102 0 -0.08406087405)
(0.3275328386 0 -0.0289539578)
(-0.2020944621 0 -0.1411796389)
(-0.9299016001 0 0.285722412)
(-0.6719915758 0 0.2903514376)
(-0.7097329136 0 0.2863670033)
(0.8396317556 0 -0.7315040899)
(0.9322440072 0 -0.8141400314)
(-0.4333318325 0 -0.5201141638)
(0.9790157799 0 -0.8250171465)
(-0.3478775901 0 -0.2303230367)
(-0.3824219251 0 -0.2179891634)
(-0.3517604722 0 -0.2014575804)
(-0.4432532752 0 -0.2244699579)
(-0.4933046642 0 -0.2395557489)
(-0.290095646 0 -0.1638012973)
(0.956877775 0 -0.8129051686)
(1.028626252 0 -0.9702260122)
(0.3211862136 0 0.3596112613)
(1.105428904 0 -1.044964432)
(1.149026632 0 -1.05372334)
(-0.2919769179 0 -0.30903224)
(-0.3173998926 0 -0.2945120425)
(-0.33209444 0 -0.2744520716)
(0.6675802655 0 -0.8355152486)
(0.7098114749 0 -0.846284832)
(-0.1661750593 0 -0.3120330497)
(-0.1760555208 0 -0.3097019787)
(-0.2235990327 0 -0.3121149012)
(-0.1200715157 0 -0.1070665445)
(-0.05642125588 0 -0.2017027599)
(-0.1671474364 0 -0.3714237552)
(-0.1640410685 0 -0.3646325422)
(-0.1606696272 0 -0.3575787642)
(-0.1607511164 0 -0.3284206638)
(0.522781904 0 0.4195582299)
(0.3982875226 0 0.4552802754)
(0.37097756 0 0.4588845916)
(0.3536782168 0 0.4318937879)
(-0.150381373 0 -0.4004810982)
(-0.1310930428 0 -0.3921088099)
(-0.1646443002 0 -0.3891715607)
(0.3768229634 0 0.374124939)
(0.4959891626 0 0.4045880225)
(0.3332289183 0 0.3215365849)
(-0.1059678967 0 -0.4471158277)
(-0.1448450971 0 -0.4321022733)
(0.7258608202 0 -0.0599519427)
(-0.000869066144 0 -0.5717357357)
(-0.001770305168 0 -0.5393117711)
(-0.06656629601 0 -0.4894967377)
(2.546165744 0 -3.739153259)
(2.566932023 0 -3.757212648)
(2.579742167 0 -3.773072584)
(-0.26041835 0 -0.9288703476)
(-0.3238655484 0 -1.035101146)
(-0.4671970364 0 -1.352855793)
(-0.1907643137 0 -0.6828290696)
(2.541727327 0 -3.686566759)
(2.546884684 0 -3.675347016)
(2.56449439 0 -3.734508793)
(1.974800821 0 1.028721732)
(-0.3481500742 0 -1.608960527)
(-0.3489480242 0 -1.346052493)
(-0.216018843 0 -0.03644752272)
(0.431591806 0 -1.764933047)
(0.4622292858 0 -1.921094733)
(0.27476529 0 -2.420777942)
(-0.06253595106 0 -0.1703280855)
(-0.07663280211 0 -0.01434844464)
(0.1520120718 0 -0.4950140392)
(0.1766636245 0 -0.5921573118)
(0.3406022503 0 -1.104941524)
(-0.08040599647 0 0.03291735663)
(0.01155727044 0 0.06666075372)
(0.002831977658 0 -0.03198292906)
(0.1364226564 0 -1.249025075)
(0.142841383 0 -1.252821218)
(0.1213789017 0 -1.054353429)
(0.01456584349 0 0.06358483712)
(0.02078313478 0 0.06824612346)
(0.03190880436 0 0.0794762987)
(0.1975735243 0 -1.071618715)
(0.2151890916 0 -1.137640564)
(0.1844894029 0 -1.200163212)
(0.01639362228 0 0.01792944588)
(0.01498962471 0 0.03768516851)
(0.02443673869 0 0.05553564066)
(0.1004031915 0 -0.6218199778)
(0.1535565568 0 -0.7521113894)
(0.1797115787 0 -0.9449133178)
(-0.03149801241 0 0.0377198793)
(-0.01030610813 0 0.03153612195)
(-0.04682009814 0 0.03518656054)
(0.236703647 0 -0.7781733332)
(0.1708062159 0 -0.7100895283)
(-0.09060562705 0 0.07772764616)
(-0.01265452575 0 0.07789989598)
(0.2850354384 0 -0.6395011301)
(0.2691378746 0 -0.7364885372)
(-0.0963610826 0 0.08724683357)
(0.3172096807 0 -0.5769105389)
(0.4674871221 0 -0.715005132)
(0.5559224114 0 -0.8298989238)
(0.4506669344 0 -0.6974485631)
(-0.1339685829 0 -0.1774137518)
(-0.05048129222 0 0.13352312)
(-0.09891062538 0 0.09330800438)
(0.7369477741 0 -1.106650175)
(0.7961145667 0 -1.190615132)
(0.6766227455 0 -1.004066076)
(-0.1361136246 0 -0.3096906075)
(-0.1501359959 0 0.136999744)
(-0.03132400769 0 0.1412552156)
(1.032707173 0 -1.620723457)
(0.924200212 0 -1.415037227)
(0.05609228675 0 -0.2545209791)
(1.200241488 0 -2.013385364)
(1.224152248 0 -2.069964852)
(1.189816564 0 -1.958714899)
(-2.213500712 0 -2.511343074)
(-1.253349362 0 1.16601617)
(0.00222348354 0 0.6525340685)
(1.245498236 0 -2.158033219)
(1.253648823 0 -2.240760831)
(1.252204873 0 -2.263259655)
(1.262745787 0 -2.23865141)
(0.01490269886 0 0.1504312322)
(-0.3122016148 0 -0.009592246123)
(-2.183110554 0 -2.540393332)
(1.21112097 0 -2.252050896)
(1.236836599 0 -2.265888629)
(-0.3510673912 0 0.06690991293)
(-0.4518629014 0 0.07312724586)
(1.077856414 0 -2.10481739)
(1.128164494 0 -2.176126824)
(-0.6914378842 0 0.1022292284)
(-0.4774468871 0 0.08574343863)
(0.8605438429 0 -1.768482148)
(0.929859838 0 -1.896506976)
(0.7891279054 0 -1.660354399)
(0.7179395596 0 -1.539306448)
(0.7970085007 0 -1.703910913)
(-0.3152865663 0 0.01108594617)
(-0.2282891628 0 0.01951238565)
(-0.2026401414 0 0.008232145146)
(-0.1417700938 0 0.05768855185)
(-0.06627436379 0 -0.264036432)
(0.6158434358 0 -1.331781206)
(0.4687627846 0 -1.037099278)
(0.3903432476 0 -0.886880778)
(0.4685640097 0 -1.066236545)
(-0.3637216156 0 -0.06664939158)
(-0.3870219687 0 -0.001380278383)
(-0.3861281374 0 -0.004421552777)
(0.2477421125 0 -0.5087074061)
(0.255833081 0 -0.3764455264)
(0.2723303195 0 -0.3517048517)
(0.2659302408 0 -0.4089675607)
(0.2866138275 0 -0.3289259471)
(0.3005976735 0 -0.3168998883)
(0.3136634143 0 -0.3683446128)
(0.1444267879 0 0.05926228777)
(0.1137997329 0 0.07175961606)
(0.07602226497 0 0.05046446747)
(0.07266032953 0 0.004631805924)
(0.09332987119 0 -0.1661651841)
(-0.2254865194 0 -0.1389466277)
(-0.03444052802 0 0.1119976431)
(0.2852829365 0 -0.2883685739)
(0.3253237578 0 -0.2713479648)
(0.6555541811 0 -0.2798218113)
(0.5597172925 0 -0.2678739448)
(1.077736717 0 -0.3363403133)
(1.550215143 0 -0.4016636813)
(1.507516351 0 -0.395585351)
(1.742708937 0 -0.3924815806)
(1.679987013 0 -0.3190348851)
(1.545471265 0 -0.2953906291)
(0.2102165886 0 -0.166715909)
(0.2343145869 0 -0.1696128855)
(0.2382168936 0 -0.1925602535)
(0.2434553762 0 -0.1376385322)
(0.1861108452 0 -0.1026246918)
(0.1669036271 0 -0.1067019451)
(0.08623211065 0 -0.09358556052)
(0.04198778424 0 -0.09175433885)
(0.06124890609 0 -0.02185995093)
(-0.3914495181 0 -0.202529394)
(-0.6609112743 0 -0.2746529938)
(-0.3884543575 0 -0.1771605526)
(-2.761308235 0 -0.7197086645)
(-6.171085489 0 -0.4973028876)
(-4.460863875 0 -0.3757389901)
(-0.4137762998 0 0.01940777129)
(-0.1623496717 0 -0.1046824507)
(-0.1651521122 0 -0.1096516367)
(-0.1365308383 0 -0.09414293088)
(-0.1256702806 0 -0.07552960429)
(-0.110798598 0 -0.08533166234)
(-0.1343712696 0 -0.07264672478)
(-0.1280568643 0 -0.08996867186)
(-0.1217573331 0 -0.1016934001)