/*--------------------------------*- C++ -*----------------------------------*\
| =========                 |                                                 |
| \\      /  F ield         | OpenFOAM: The Open Source CFD Toolbox           |
|  \\    /   O peration     | Version:  2.1.x                                 |
|   \\  /    A nd           | Web:      www.OpenFOAM.org                      |
|    \\/     M anipulation  |                                                 |
\*---------------------------------------------------------------------------*/
FoamFile
{
    version     2.0;
    format      ascii;
    class       scalarField;
    location    "0.3";
    object      age;
}
// * * * * * * * * * * * * * * * * * * * * * * * * * * * * * * * * * * * * * //


28
(
0.005414487608
0.005207860552
0.005007283573
0.004835170647
0.004618859271
0.004414705148
0.004208725842
0.004021105922
0.003833668314
0.003615934616
0.003412914299
0.003222205753
0.003009071157
0.002836276728
0.002604775294
0.002413935536
0.002221975578
0.002009406614
0.001821351632
0.001638062904
0.001422730691
0.001222298118
0.001009724532
0.0008111813542
0.0006160139921
0.000430304518
0.0002269960295
2.802847316e-05
)


// ************************************************************************* //
