/*--------------------------------*- C++ -*----------------------------------*\
| =========                 |                                                 |
| \\      /  F ield         | OpenFOAM: The Open Source CFD Toolbox           |
|  \\    /   O peration     | Version:  2.1.x                                 |
|   \\  /    A nd           | Web:      www.OpenFOAM.org                      |
|    \\/     M anipulation  |                                                 |
\*---------------------------------------------------------------------------*/
FoamFile
{
    version     2.0;
    format      ascii;
    class       scalarField;
    location    "0.3";
    object      d;
}
// * * * * * * * * * * * * * * * * * * * * * * * * * * * * * * * * * * * * * //


28
(
0.0005016323542
0.0005000664256
0.000543359704
0.0005823029524
0.000502407442
0.0005370244435
0.0005026998159
0.0005032995891
0.001056303349
0.0005128003936
0.0005325758564
0.0006657598722
0.0005011635011
0.0005133724751
0.0005237875558
0.0005334703961
0.0005848529222
0.0005073630812
0.0005003521427
0.000799996238
0.0005075735054
0.0005107425342
0.0005000200245
0.000559030723
0.0009682092088
0.0005000929338
0.0005929253869
0.0005419208134
)


// ************************************************************************* //
