/*--------------------------------*- C++ -*----------------------------------*\
| =========                 |                                                 |
| \\      /  F ield         | OpenFOAM: The Open Source CFD Toolbox           |
|  \\    /   O peration     | Version:  2.1.x                                 |
|   \\  /    A nd           | Web:      www.OpenFOAM.org                      |
|    \\/     M anipulation  |                                                 |
\*---------------------------------------------------------------------------*/
FoamFile
{
    version     2.0;
    format      ascii;
    class       scalarField;
    location    "0.3";
    object      mass0;
}
// * * * * * * * * * * * * * * * * * * * * * * * * * * * * * * * * * * * * * //


28
(
6.609296597e-08
6.547593568e-08
8.399644489e-08
1.033821592e-07
6.639980652e-08
8.109251754e-08
6.651579725e-08
6.675416224e-08
6.17112854e-07
7.06063355e-08
7.909391001e-08
1.545081767e-07
6.590781682e-08
7.084290505e-08
7.52426618e-08
7.949312947e-08
1.047462816e-07
6.838411152e-08
6.55882305e-08
2.680787912e-07
6.846923187e-08
6.975971593e-08
6.545771088e-08
9.147568102e-08
4.752326269e-07
6.548634874e-08
1.091437218e-07
8.333090831e-08
)


// ************************************************************************* //
