/*--------------------------------*- C++ -*----------------------------------*\
| =========                 |                                                 |
| \\      /  F ield         | OpenFOAM: The Open Source CFD Toolbox           |
|  \\    /   O peration     | Version:  2.1.x                                 |
|   \\  /    A nd           | Web:      www.OpenFOAM.org                      |
|    \\/     M anipulation  |                                                 |
\*---------------------------------------------------------------------------*/
FoamFile
{
    version     2.0;
    format      ascii;
    class       scalarField;
    location    "0.3";
    object      nParticle;
}
// * * * * * * * * * * * * * * * * * * * * * * * * * * * * * * * * * * * * * //


28
(
2.233801897
2.071904792
1.64760924
1.252291482
2.133445836
1.74514605
2.321971307
1.952017311
0.2105925932
2.141678246
1.608302658
0.9151071423
2.175278185
1.827800553
1.894542143
1.711984764
1.39058299
2.18928546
1.977255807
0.4781586394
2.18416678
1.990522768
2.255385245
1.450707636
0.291224762
1.976532789
1.245399971
1.661127772
)


// ************************************************************************* //
