/*--------------------------------*- C++ -*----------------------------------*\
| =========                 |                                                 |
| \\      /  F ield         | OpenFOAM: The Open Source CFD Toolbox           |
|  \\    /   O peration     | Version:  2.1.x                                 |
|   \\  /    A nd           | Web:      www.OpenFOAM.org                      |
|    \\/     M anipulation  |                                                 |
\*---------------------------------------------------------------------------*/
FoamFile
{
    version     2.0;
    format      ascii;
    class       Cloud<basicReactingParcel>;
    location    "0.3";
    object      positions;
}
// * * * * * * * * * * * * * * * * * * * * * * * * * * * * * * * * * * * * * //

28
(
(0.01604817355 0.0003154407641 0.01127717367) 76431
(0.0123980616 0.0008616483679 0.01589824108) 105968
(0.01527951579 0.002244115813 0.007375690334) 53695
(0.005541859785 0.00465720607 0.01808488279) 116290
(0.006316681333 0.004538305639 0.01693587045) 111743
(0.01136700229 0.002875902415 0.01306511291) 87170
(0.01281164093 0.003466663133 0.011768758) 82475
(0.009883847369 0.006003562272 0.006420430073) 50392
(0.01297854291 0.004503531864 0.01321787421) 87772
(0.01376888129 0.006207246736 0.01686241826) 112350
(0.009853208282 0.006242818761 0.01385398807) 93230
(0.01225414649 0.006636583449 0.01484538962) 98153
(0.01285312978 0.007976907215 0.008464843185) 64408
(0.009524365647 0.008759041836 0.009254582132) 6170
(0.01234239542 0.008266825578 0.01156035044) 79139
(0.01213730263 0.009544147957 0.009285850701) 69727
(0.01600837388 0.0106184955 0.0142226338) 99359
(0.01207755999 0.01000449489 0.01231382732) 84432
(0.01322505043 0.01105791736 0.01467938686) 99530
(0.01481509667 0.01167897661 0.01283886399) 89742
(0.01219124801 0.01182309515 0.01171867888) 85015
(0.01284094036 0.01237055889 0.01284239883) 89923
(0.01310791505 0.01304124722 0.01233362739) 85224
(0.01324888021 0.01369109165 0.01235371166) 85418
(0.01264897031 0.01418681972 0.01217230538) 85419
(0.01247756366 0.0147917001 0.01295169124) 90509
(0.01225403527 0.01543144484 0.01221748587) 85803
(0.01247925786 0.01591956394 0.01251303949) 90701
)


// ************************************************************************* //
