/*--------------------------------*- C++ -*----------------------------------*\
| =========                 |                                                 |
| \\      /  F ield         | OpenFOAM: The Open Source CFD Toolbox           |
|  \\    /   O peration     | Version:  2.1.x                                 |
|   \\  /    A nd           | Web:      www.OpenFOAM.org                      |
|    \\/     M anipulation  |                                                 |
\*---------------------------------------------------------------------------*/
FoamFile
{
    version     2.0;
    format      ascii;
    class       vectorField;
    location    "0.3";
    object      U;
}
// * * * * * * * * * * * * * * * * * * * * * * * * * * * * * * * * * * * * * //


28
(
(0.6449595454 -2.877513288 -0.2222759129)
(-0.0192750186 -2.887927784 0.6425562687)
(0.5478727444 -2.735967819 -1.010057078)
(-1.422728907 -2.342964874 1.14193936)
(-1.320685627 -2.470721974 0.9474508206)
(-0.2536407527 -2.959708888 0.1265101086)
(0.07313659201 -2.961999868 -0.1716095116)
(-0.642982874 -2.476601336 -1.494201561)
(0.1243486195 -3.006209865 0.1865384798)
(0.3473112697 -2.698181576 1.194057351)
(-0.7684060149 -2.849445432 0.3930844154)
(-0.07582210101 -2.903576404 0.7233265528)
(0.1163152825 -2.657490446 -1.329115899)
(-1.040673208 -2.546360081 -1.135025014)
(-0.0600701199 -2.960302057 -0.3581422597)
(-0.1492739816 -2.668928883 -1.322835258)
(1.570672922 -2.420244768 0.7712103571)
(-0.2090018307 -2.976214076 -0.09210877413)
(0.3959272844 -2.707739575 1.190094759)
(1.409839922 -2.639535683 0.2063602734)
(-0.216111128 -2.930699209 -0.5468861638)
(0.2779432283 -2.964906738 0.2791322111)
(0.6002327791 -2.926409558 -0.1642701416)
(0.9212751854 -2.84450801 -0.1799644587)
(0.2416561651 -2.944421096 -0.5315785765)
(-0.05207152062 -2.806492978 1.048310599)
(-1.082946507 -2.504482444 -1.243868137)
(-0.739946865 -2.869674929 0.4651656993)
)


// ************************************************************************* //
