/*--------------------------------*- C++ -*----------------------------------*\
| =========                 |                                                 |
| \\      /  F ield         | OpenFOAM: The Open Source CFD Toolbox           |
|  \\    /   O peration     | Version:  2.1.x                                 |
|   \\  /    A nd           | Web:      www.OpenFOAM.org                      |
|    \\/     M anipulation  |                                                 |
\*---------------------------------------------------------------------------*/
FoamFile
{
    version     2.0;
    format      ascii;
    class       surfaceScalarField;
    location    "1.2";
    object      phi;
}
// * * * * * * * * * * * * * * * * * * * * * * * * * * * * * * * * * * * * * //

dimensions      [1 1 -1 0 0 0 0];

internalField   nonuniform List<scalar> 
5536
(
8.393097385e-11
-3.524831548e-10
3.673946451e-11
-4.798461653e-11
-3.26558323e-10
7.316814916e-11
-1.191294642e-10
-5.979926924e-10
1.595022764e-10
-1.841506577e-10
-6.180540754e-10
2.056880967e-10
-3.041025388e-10
-1.42755357e-09
-8.454919666e-10
-4.037996127e-10
3.884537655e-10
-1.221489405e-09
-2.969224695e-10
1.610230176e-09
4.919650001e-10
-1.255897743e-09
-3.74895316e-10
1.035824987e-09
2.468232871e-10
-7.53359531e-10
-1.313604303e-10
3.074544841e-10
4.366987669e-11
-2.607759471e-10
3.263336959e-11
3.477057166e-10
-4.248992031e-11
-3.976871042e-10
8.840605957e-11
7.721063227e-10
-2.033101848e-10
-1.112195875e-09
2.922795065e-10
7.080523042e-10
-3.205531411e-10
-8.596266536e-10
3.159637797e-10
1.063261571e-09
-3.405529177e-10
-1.000880334e-09
4.674966889e-10
1.97361242e-09
-5.613347688e-10
-2.556997415e-09
5.207574279e-10
3.422453119e-10
-2.938393491e-10
1.34978655e-11
-1.845604692e-10
-3.930280942e-11
-8.181618488e-11
4.035894103e-11
-5.866955661e-10
-4.798781104e-10
7.391224575e-10
4.578084753e-10
-6.248441164e-10
-4.949613459e-10
8.222783789e-10
5.072181147e-10
-7.897935718e-10
-5.244840353e-10
1.148186458e-09
5.179223223e-10
-9.945251653e-10
-4.448807011e-10
9.873849648e-10
3.336509687e-10
-8.474511698e-10
-2.341947795e-10
6.330263388e-10
1.560688994e-10
-6.022233255e-10
-8.978846246e-11
2.505646088e-10
3.202105983e-11
-2.640763233e-10
1.747247056e-11
5.015557448e-10
-4.12513931e-11
-7.232791267e-10
1.260658499e-10
1.756671541e-09
-4.542143516e-10
-2.742619946e-09
6.618652174e-10
1.098063436e-09
-6.523611779e-10
-1.426580624e-09
5.435292331e-10
9.859166815e-10
-4.58719825e-10
-1.009679722e-09
4.308555645e-10
3.454081087e-09
-3.135969048e-10
-3.951219232e-09
5.131927668e-10
4.169507181e-10
-2.923764059e-10
-7.221050695e-10
1.017673336e-10
7.65404454e-11
-5.304582555e-11
-1.028044193e-10
3.953739031e-11
6.341042001e-11
-4.801786041e-11
-1.085264072e-10
6.544246012e-11
-1.189922381e-10
7.183233325e-11
-7.488758284e-11
4.178671821e-10
-4.497997978e-10
-4.242929165e-10
5.048025813e-10
4.277740518e-10
-4.817809779e-10
-4.329613893e-10
5.775966138e-10
4.422606008e-10
-5.480371631e-10
-4.521752356e-10
7.195382918e-10
4.602843259e-10
-6.676541272e-10
-4.576743385e-10
8.762187345e-10
4.327190621e-10
-8.199308302e-10
-3.812914012e-10
8.015950818e-10
3.150449371e-10
-8.048511401e-10
-2.454989381e-10
6.114738771e-10
1.73856055e-10
-6.428930032e-10
-1.015768198e-10
2.942265197e-10
3.801524392e-11
-3.428878842e-10
1.430256723e-11
1.212791367e-09
-4.859199841e-11
-2.089284254e-09
2.415535649e-10
3.750909255e-09
-7.46382243e-10
-4.296753086e-09
1.116804863e-09
1.76515548e-09
-1.084087929e-09
-1.954636077e-09
8.15782144e-10
1.071037137e-09
-5.712035511e-10
-1.186229419e-09
3.778204274e-10
3.735187147e-09
-1.692992316e-10
-3.0843769e-09
3.798314339e-10
1.153490578e-09
-4.501062967e-10
-1.454500821e-09
2.563257048e-10
1.58672878e-10
-1.264251052e-10
-2.35828308e-10
1.285797749e-10
1.71480258e-10
-1.560496319e-10
-2.284449572e-10
1.79336491e-10
1.602761872e-10
-1.796422496e-10
-1.838950911e-10
1.498959325e-10
7.332415047e-11
-7.974126326e-11
6.484577504e-11
-1.057687516e-10
-4.985100996e-11
-5.92997632e-11
4.232586387e-10
4.382055936e-10
-4.116209081e-10
-4.191971008e-10
4.423132674e-10
4.247549498e-10
-4.469208639e-10
-4.310800147e-10
4.803818493e-10
4.325941775e-10
-4.851441939e-10
-4.328646953e-10
5.375641714e-10
4.339692041e-10
-5.349094323e-10
-4.371354154e-10
6.455902655e-10
4.429365239e-10
-6.372238776e-10
-4.497439095e-10
8.028697953e-10
4.499210294e-10
-7.964823074e-10
-4.315528279e-10
8.274494245e-10
3.887509156e-10
-8.551478333e-10
-3.251195824e-10
6.9402667e-10
2.451068602e-10
-7.614710658e-10
-1.5478796e-10
4.145748848e-10
6.707748517e-11
-5.152826127e-10
1.211708353e-11
2.990751527e-09
-7.52048135e-11
-3.256027368e-09
2.424448611e-10
4.189742561e-09
-5.116063691e-10
-3.598303701e-09
9.232108811e-10
1.898160152e-09
-1.001534893e-09
-1.655968243e-09
7.091158351e-10
1.376931836e-09
-3.85349677e-10
-1.572334834e-09
9.130687049e-11
2.326710251e-09
-7.018783558e-12
-1.664755319e-09
2.048131766e-10
1.44815252e-09
-3.229367872e-10
-1.206763481e-09
2.817590642e-10
3.048442035e-10
-2.415442452e-10
-3.261081687e-10
2.526575139e-10
2.549505987e-10
-2.395278529e-10
-2.355773133e-10
2.262670722e-10
1.758926161e-10
-1.870275846e-10
-1.392498835e-10
1.340568687e-10
7.595430169e-11
-8.904048325e-11
-6.857260643e-11
6.037364965e-11
4.662288444e-11
-4.616537954e-11
-4.410302151e-11
4.494301964e-11
-4.790953847e-11
-6.726695807e-11
4.677877083e-10
5.599330199e-10
-4.468895148e-10
-4.671437322e-10
4.111358543e-10
4.50287971e-10
-4.107057756e-10
-4.579368437e-10
4.526797421e-10
4.684566555e-10
-4.541213053e-10
-4.718007628e-10
4.861806845e-10
4.679119561e-10
-4.800018293e-10
-4.621928876e-10
5.285987419e-10
4.602916258e-10
-5.14636977e-10
-4.65951163e-10
6.262805677e-10
4.810843389e-10
-6.077049982e-10
-5.041031332e-10
7.861840433e-10
5.258502046e-10
-7.715021589e-10
-5.296894903e-10
8.808950495e-10
5.041065987e-10
-8.940485112e-10
-4.478792033e-10
8.266702112e-10
3.650534472e-10
-8.575012073e-10
-2.636365713e-10
6.416474147e-10
1.587678282e-10
-7.17556964e-10
-7.134823156e-11
2.690768378e-09
-3.344118893e-11
-1.68862996e-09
2.669995628e-11
2.813756824e-09
-1.389942959e-10
-2.037769296e-09
4.593852718e-10
1.372573612e-09
-6.498115987e-10
-1.188490317e-09
2.640957833e-10
1.511377094e-09
9.852644152e-12
-1.114920814e-09
-1.363881304e-10
1.15458156e-09
2.361182786e-11
-7.688282314e-10
9.939214211e-11
8.873147597e-10
-1.763332154e-10
-5.937637335e-10
1.709691107e-10
3.126697018e-10
-1.442207128e-10
-2.545313619e-10
1.50254959e-10
1.781246959e-10
-1.419689041e-10
-1.215552375e-10
1.133144979e-10
9.788441588e-11
-8.629745895e-11
-8.089612015e-11
7.625096335e-11
6.637118177e-11
-7.857422074e-11
-7.126156709e-11
8.413593602e-11
5.177993588e-11
-8.961404352e-11
-6.050291934e-11
9.358119332e-11
4.698798174e-11
-9.601017788e-11
-5.170469088e-11
9.897308445e-11
-6.235351834e-11
-1.189135297e-10
5.839493563e-10
-5.365869207e-10
-6.193378811e-10
5.22690749e-10
4.330751122e-10
-4.143105017e-10
-4.792373731e-10
4.061780502e-10
4.788773337e-10
-3.947159963e-10
-4.96123821e-10
4.497245415e-10
5.08269224e-10
-4.395911483e-10
-5.066166581e-10
4.679966312e-10
4.959655262e-10
-4.534594152e-10
-4.86854067e-10
4.953821938e-10
4.883921078e-10
-4.757224957e-10
-5.061827337e-10
5.856449711e-10
5.420919044e-10
-5.663484124e-10
-5.915999142e-10
7.559530245e-10
6.374662005e-10
-7.362543434e-10
-6.522748982e-10
8.766331901e-10
6.178292854e-10
-8.225160726e-10
-5.435985132e-10
8.709907892e-10
4.602477198e-10
-1.099501993e-09
-3.542905118e-10
6.417609144e-10
1.999880704e-10
-4.524060199e-10
-1.364400848e-10
8.439135327e-10
6.781861856e-11
-3.671509999e-10
-1.741088342e-11
1.351679581e-09
-1.86105463e-11
-7.943813342e-10
2.078526531e-10
1.302814231e-09
-3.322626644e-10
-1.974086844e-09
-9.1893657e-11
7.266384767e-10
1.508876359e-10
-4.633348968e-10
-7.501619388e-11
4.86442261e-10
1.496611602e-11
-2.877783244e-10
4.55654815e-11
3.625958167e-10
-8.47406431e-11
-1.953288373e-10
8.327721185e-11
1.350242715e-10
-6.592037193e-11
-6.68788074e-11
4.68926926e-11
1.159098587e-10
-3.660802357e-11
-1.335417212e-10
8.008103889e-11
9.083994497e-11
-1.059741448e-10
-1.114920311e-10
1.345542445e-10
7.58218354e-11
-1.472052404e-10
-7.176151024e-11
1.516768226e-10
6.057764984e-11
-1.516101193e-10
-5.145636489e-11
1.485517748e-10
4.958679336e-11
-1.433375113e-10
-4.044803556e-11
1.365443451e-10
7.736147425e-11
-6.684769909e-11
5.295327359e-11
-1.271189439e-10
-3.967274325e-10
-6.57442035e-10
4.731409509e-10
5.914026049e-10
-3.940096561e-10
-5.379395873e-10
3.862029869e-10
4.868428961e-10
-3.496993061e-10
-4.632333859e-10
3.746296117e-10
4.747723868e-10
-3.451416812e-10
-5.050328513e-10
4.242135033e-10
5.307375473e-10
-4.039849765e-10
-5.404843067e-10
4.400332544e-10
5.395431413e-10
-4.309863653e-10
-5.430148728e-10
4.598486595e-10
5.658277777e-10
-4.501366705e-10
-6.149947119e-10
5.521949844e-10
6.854661603e-10
-5.415176774e-10
-7.543237698e-10
7.02666717e-10
7.815433441e-10
-6.5086855e-10
-7.422059285e-10
7.631610834e-10
6.699771807e-10
-7.274375913e-10
-6.531100619e-10
2.027159105e-09
7.49139432e-10
-3.377998208e-09
-4.71306155e-10
3.525793271e-10
5.982429598e-11
-8.11920648e-10
-5.501633671e-11
1.426579638e-10
2.360918164e-11
-5.653512786e-11
-5.91712989e-12
4.003502988e-10
-1.73563076e-12
-1.686500343e-10
8.491910882e-11
2.60079914e-09
-3.976969402e-10
-2.377081478e-09
3.477053771e-11
3.458158045e-10
7.537953265e-11
-4.465578447e-10
-2.887861687e-11
1.550754982e-10
6.62806946e-12
-7.506117547e-11
1.755095237e-11
8.668552002e-11
-3.078375404e-11
-2.913791231e-11
2.739766693e-11
2.722885891e-11
-1.788635428e-11
-9.331402575e-12
1.103143376e-11
2.148559597e-10
-1.063876088e-11
-3.451829217e-10
1.489391443e-10
1.043280392e-10
-2.169995275e-10
-7.443159619e-11
1.991517704e-10
5.425124505e-11
-1.768482882e-10
-2.720372023e-11
1.586288438e-10
3.589809422e-11
-1.443454928e-10
-1.758311883e-11
1.332072007e-10
2.878217199e-11
-1.247385915e-10
-1.733019342e-11
1.193462938e-10
3.663028706e-11
-1.194583492e-10
-3.753111576e-11
1.225031661e-10
1.121155056e-08
-1.989243104e-10
-3.376722835e-09
-9.318262023e-11
3.154259365e-10
5.118079943e-10
-2.781814043e-10
-4.309282754e-10
3.204810368e-10
4.171451962e-10
-2.568191744e-10
-4.082707025e-10
3.048447335e-10
3.968395741e-10
-2.540628083e-10
-3.926350379e-10
3.067901284e-10
4.133779884e-10
-2.63559281e-10
-4.642737824e-10
3.79483253e-10
5.328324877e-10
-3.546385327e-10
-6.01826239e-10
4.296141406e-10
6.634092394e-10
-4.410816189e-10
-7.260257281e-10
4.488377882e-10
8.045865846e-10
-4.615512098e-10
-8.950412813e-10
5.322509073e-10
9.61952729e-10
-5.220014877e-10
-9.589332793e-10
5.864832086e-10
8.750080628e-10
-5.137852745e-10
-7.563860375e-10
6.726630052e-10
6.56903742e-10
-5.508995046e-10
-5.518023342e-10
3.805922051e-09
3.504590405e-10
-3.022584382e-09
5.281513961e-10
3.83106321e-09
-3.418209752e-10
-1.378345598e-08
-2.65634893e-10
3.618883775e-11
1.103141438e-11
-3.587513511e-11
-4.778587564e-12
5.897732827e-11
-7.175432143e-13
-1.972729046e-11
1.933585655e-11
1.50514781e-09
-1.740296391e-10
-7.249014288e-10
5.187090965e-10
8.987871654e-10
-1.38528846e-10
-1.82547964e-09
-8.887598722e-12
3.513109151e-11
2.4256884e-12
-2.108184729e-11
4.965351145e-12
7.500376169e-12
-6.421948914e-12
-2.577097571e-12
5.187058091e-12
2.951062658e-12
-3.817592888e-12
-8.176571754e-13
2.809227923e-12
5.147693123e-10
-8.603457817e-12
-5.841494379e-10
1.082741189e-10
3.429999345e-11
-1.095217683e-10
-6.732086881e-12
1.075922461e-10
-5.7262849e-12
-9.517204048e-11
2.92014439e-11
8.154656489e-11
-2.820785553e-12
-6.927195608e-11
1.977377231e-11
5.92698168e-11
5.577071742e-12
-5.215457219e-11
6.65235804e-12
4.898529751e-11
3.373375851e-11
-5.893338174e-11
-2.801373574e-11
1.158742663e-10
-7.780948381e-09
-1.527031129e-10
-8.979987063e-11
-1.374158583e-09
-2.159234203e-09
-6.343831591e-10
-1.679862513e-10
-3.80499484e-10
3.304533199e-10
2.259893379e-10
-1.787963141e-10
-3.105966286e-10
2.080800417e-10
2.915986259e-10
-1.721836152e-10
-2.800203756e-10
2.045060901e-10
2.777096858e-10
-1.688190412e-10
-2.871577131e-10
2.290366427e-10
3.220077042e-10
-2.445086832e-10
-4.047976865e-10
3.487562658e-10
5.516888628e-10
-4.304008738e-10
-7.626973576e-10
4.783098443e-10
1.007357706e-09
-5.701487077e-10
-1.220244635e-09
4.963686154e-10
1.340638912e-09
-5.438777004e-10
-1.343845589e-09
5.012710603e-10
1.235058509e-09
-4.500464944e-10
-1.048685776e-09
4.294405547e-10
8.363776862e-10
-3.302092539e-10
-6.312296499e-10
3.91980079e-10
4.271615219e-10
-2.584535736e-10
-2.210657451e-10
2.295239027e-09
8.922435229e-11
-3.448535949e-09
3.900866861e-10
3.0399807e-08
-4.762620088e-10
-4.552026526e-08
-2.718106522e-09
4.053009754e-11
2.424364332e-11
-4.936566337e-11
-1.233755107e-11
1.06978996e-11
-3.98876253e-13
-1.22447748e-11
5.712103727e-12
3.028378139e-10
-5.091199225e-11
-1.889189783e-10
2.427506759e-10
2.737186371e-09
-6.652222758e-10
-2.914020332e-09
1.078804307e-10
2.337242366e-11
9.373438016e-12
-5.484271718e-11
-3.892360748e-12
4.264148583e-13
-7.717656748e-12
1.804028848e-12
1.247871853e-12
1.658486865e-13
-3.0594797e-13
1.33976941e-14
9.085803192e-14
4.244316498e-10
-3.394077232e-12
-2.647395049e-10
-1.529349649e-11
1.013371073e-11
-1.750915852e-11
-9.550754381e-12
6.334803499e-11
-3.563792925e-11
-1.587780008e-10
-5.759541102e-13
2.970889897e-10
-3.770457666e-11
-4.76219194e-10
-3.708102377e-13
7.035272978e-10
-3.297822627e-11
-9.955454094e-10
-3.418667292e-13
1.371148042e-09
-3.823947178e-11
-1.830642701e-09
-2.004852405e-13
2.281955814e-09
2.653413215e-09
-2.62082129e-09
-9.834511649e-09
3.187011242e-09
1.159290383e-09
-3.081513891e-10
2.707456784e-10
-1.326993986e-09
1.312349476e-10
-1.022227159e-10
-2.345709953e-10
2.40346336e-10
1.427740149e-10
-1.32188996e-10
-2.361660245e-10
1.470777477e-10
2.270257388e-10
-1.516778098e-10
-2.221556201e-10
1.740817304e-10
2.556408397e-10
-3.400373652e-10
-3.948076897e-10
4.247411486e-10
6.969309202e-10
-9.078166896e-10
-1.110806219e-09
7.215901124e-10
1.482098164e-09
-1.113566145e-09
-1.736586647e-09
7.385311045e-10
1.879204766e-09
-9.442632541e-10
-1.89422203e-09
5.661761414e-10
1.755981073e-09
-5.899749116e-10
-1.490279121e-09
3.59051379e-10
1.175475275e-09
-2.680454104e-10
-8.809640043e-10
2.243231574e-10
6.298063856e-10
-1.3804082e-10
-4.24251138e-10
2.469290444e-10
3.639130558e-10
-1.108896558e-09
-1.023205075e-09
9.57822076e-09
3.353680016e-09
-1.830737107e-08
-7.505749842e-09
4.819250354e-08
1.192815965e-08
-3.717361814e-08
-2.550478688e-09
6.121893721e-11
4.189898712e-11
-7.187689666e-11
-3.51870165e-11
2.077608949e-11
2.333570028e-12
-4.712909269e-11
2.382328048e-11
5.969058695e-10
-1.045030307e-10
-2.959792886e-09
6.213510799e-10
2.205013916e-09
-7.823649324e-10
-1.98076907e-09
4.886881876e-10
1.07693396e-10
5.373773455e-11
-2.758043745e-11
-1.184556586e-10
8.180415858e-10
-4.851472088e-10
-2.984353882e-09
1.831310712e-09
7.417744118e-10
-2.080807473e-09
-4.772770431e-09
1.258728614e-09
2.381648051e-10
-4.504186871e-10
-1.47669046e-09
-6.749501478e-12
3.736653474e-12
1.428040881e-12
-4.181075972e-11
-2.524401364e-13
1.286795595e-12
-1.343906082e-13
-9.677309846e-12
6.698642791e-13
1.974248947e-13
-3.711646779e-13
-7.304194795e-13
1.530267601e-13
7.596923082e-14
-8.58285649e-14
-8.506489469e-14
7.719760728e-14
2.607219469e-13
-1.630494254e-13
-3.272216444e-12
9.777806915e-13
2.220515642e-08
-2.663811217e-11
-2.629288071e-08
4.382318533e-09
2.013540368e-09
-2.742928476e-09
2.416260703e-09
-3.939651161e-09
1.474486347e-10
2.856587711e-10
-2.988772968e-10
-3.811478934e-10
2.432536739e-10
4.918652306e-10
-8.708324605e-10
-6.429358407e-10
3.847083756e-10
1.035259779e-09
-1.444235582e-09
-1.850907333e-09
9.839927861e-10
2.821129266e-09
-1.665653992e-09
-3.494545698e-09
1.347664664e-09
3.607104408e-09
-1.179784665e-09
-3.345823954e-09
1.159733992e-09
3.058384479e-09
-7.850166868e-10
-2.950230298e-09
9.762650256e-10
3.024019947e-09
-6.801307531e-10
-3.127452038e-09
6.651039212e-10
3.030242867e-09
-6.50882608e-10
-2.581285242e-09
2.649409521e-10
1.863441281e-09
-4.40375029e-10
-1.159817066e-09
1.3939711e-10
8.417554742e-10
-8.914906916e-10
-1.955961754e-09
5.94563517e-09
6.779516563e-09
-1.273303854e-08
-1.247135705e-08
2.08979925e-08
1.464859463e-08
-1.499487603e-08
-1.427002165e-08
2.069182079e-08
1.002139406e-08
-8.0950673e-09
-1.104573743e-09
7.070355564e-11
8.45534581e-11
-4.710955338e-12
-1.570056963e-10
1.412771459e-10
1.431946869e-10
-4.826463648e-10
1.151758238e-10
6.501923813e-09
-2.628596216e-10
-7.112898822e-09
2.325602577e-09
4.195489089e-09
-3.692682089e-09
-1.289603496e-08
-3.264175477e-11
3.574571915e-11
3.377981422e-11
-2.88397812e-10
1.72702462e-11
2.246463418e-09
-7.378467201e-10
-2.045614872e-09
1.980302283e-09
5.544217056e-09
-3.823182781e-09
-3.756078688e-09
5.833263687e-09
5.440846743e-09
-7.063763834e-09
-6.193962172e-09
6.204672039e-09
4.958457425e-10
-1.43753815e-09
-3.178631003e-09
-3.777059134e-11
6.101980013e-11
-7.016744638e-12
-3.295649518e-10
3.573899622e-11
3.034594995e-12
-1.270561298e-11
-1.107559703e-11
2.944630184e-12
1.419053254e-13
-5.791020023e-13
-5.582329453e-13
1.737205943e-13
4.814907535e-11
-7.82949637e-12
-6.156044627e-10
1.900884784e-10
2.225091244e-08
-1.027011525e-09
-1.292699734e-08
1.853743113e-09
1.966169931e-09
-1.773841136e-09
-1.385564424e-09
1.249723061e-09
2.045929157e-10
-1.448491392e-10
-9.063244308e-10
1.503505582e-09
8.051503868e-10
-1.916375424e-09
-4.905031594e-09
2.24862976e-09
8.385292404e-09
-2.77572519e-09
-9.965760761e-09
2.280589e-09
9.386652646e-09
-1.621003279e-09
-7.452260676e-09
1.364792066e-09
5.274006103e-09
-7.125428398e-10
-3.505144716e-09
6.719707282e-10
2.289264802e-09
-3.14598066e-10
-1.532949021e-09
3.686264541e-10
1.095682776e-09
-1.654755281e-10
-8.701326062e-10
2.838700228e-10
7.900740983e-10
-1.21195521e-10
-8.159558262e-10
3.208737113e-10
9.265213536e-10
-1.254627028e-10
-1.125897726e-09
4.457631684e-10
1.524370841e-09
-4.027636458e-10
-2.844134228e-09
3.51151134e-09
7.236676325e-09
-4.12822284e-09
-1.377655865e-08
1.170567558e-08
1.507304772e-08
-5.41528171e-09
-1.132229048e-08
6.96506146e-09
7.241750697e-09
-2.253757295e-09
-4.086402344e-09
2.308966569e-09
1.664942759e-09
-5.269137341e-10
-3.24644941e-10
-6.844514733e-11
2.886707918e-10
3.27366779e-11
-1.613328402e-10
1.541650998e-09
-5.200326002e-10
-7.837936138e-09
1.74064371e-09
7.128358549e-09
-1.681418866e-09
-9.752148785e-09
3.046932123e-09
1.959716403e-08
-6.555080992e-09
-1.560716898e-08
8.913285012e-09
2.916658136e-09
-4.766836252e-09
-1.050051648e-08
3.271594953e-09
3.011262192e-09
-3.185812259e-09
-5.332458447e-09
3.189749393e-09
2.692134114e-09
-3.194493026e-09
-2.569908017e-09
3.608808866e-09
4.170668098e-09
-4.749218822e-09
-2.551846969e-09
6.893986601e-09
5.599170139e-09
-9.645554867e-09
-4.462291235e-09
9.678855131e-09
1.392452815e-09
-4.939659782e-09
-2.653185236e-09
1.475276897e-09
2.8515499e-11
-2.906948203e-10
-6.554375838e-12
4.538763305e-11
5.563875624e-12
-5.965048431e-12
-9.007081446e-11
7.040610973e-12
3.765628186e-09
9.951851792e-10
-4.734250401e-09
-3.384673126e-09
4.82105487e-09
5.658629287e-10
-1.310431306e-09
3.839973659e-10
2.172342801e-09
-1.216492757e-09
-2.008439141e-09
7.757818801e-10
-3.092630787e-11
1.401640607e-11
2.974425465e-11
9.073563104e-10
-6.204082656e-10
-7.635790639e-09
1.113457009e-08
2.345180184e-09
-1.49721129e-09
-1.141271597e-08
1.818297241e-09
9.332909854e-09
-9.91315129e-10
-6.598403145e-09
8.391463067e-10
4.292062658e-09
-4.75786729e-10
-2.703625461e-09
3.596617144e-10
1.717801854e-09
-2.434520886e-10
-1.129789931e-09
1.75563853e-10
7.769720015e-10
-1.44403871e-10
-5.589399583e-10
1.036182077e-10
4.194523165e-10
-9.262393873e-11
-3.24883897e-10
7.008855404e-11
2.542918568e-10
-5.274333728e-11
-2.044870567e-10
6.449477852e-11
2.050700505e-10
-1.765022518e-11
-3.397626361e-10
2.947177317e-10
7.585639806e-10
-6.746047731e-12
-1.612484594e-09
1.662346664e-09
2.744291505e-09
-4.806222219e-12
-3.218533012e-09
1.459042354e-09
2.574242031e-09
-6.034776968e-12
-1.656742254e-09
5.502396157e-10
9.701814686e-10
-6.41823268e-11
-5.259836369e-10
1.621543547e-10
2.394457147e-10
-7.785118459e-11
-2.251001955e-10
3.423033927e-10
1.07542817e-10
-2.538991386e-10
1.599215269e-09
1.346180991e-08
-9.209787e-09
-6.793095141e-09
2.59422585e-08
1.287831717e-08
-2.177524567e-08
-7.571321945e-09
8.474357027e-09
8.783612116e-09
-4.486559514e-09
-3.399229269e-09
6.097670092e-09
1.162948834e-08
-9.563484079e-09
-5.634051685e-09
1.201687182e-08
7.56151706e-09
-1.223407975e-08
-6.572708116e-09
1.07086973e-08
2.916861796e-09
-8.159673714e-09
-3.190918122e-09
5.855698426e-09
1.734774651e-09
-4.630703885e-09
-1.377842715e-09
4.57769062e-09
2.668750016e-09
-5.625618372e-09
-1.229240759e-09
7.802397366e-09
2.947763926e-09
-1.003728491e-08
-1.770672206e-09
8.642409515e-09
-4.025495362e-11
-2.659085944e-09
7.768949012e-11
2.014668179e-10
9.560597269e-10
2.346356919e-09
-4.145934587e-11
-7.029605794e-09
2.230897514e-09
4.29269587e-09
-2.477035591e-10
-1.616562945e-09
2.097655086e-10
6.895061178e-11
3.46998505e-11
5.224382322e-11
2.839387969e-09
-2.087469392e-09
-1.268823769e-11
4.400061029e-09
-3.578428022e-12
2.067773781e-11
-1.091612456e-13
-5.208825722e-10
1.351069293e-10
-7.398294014e-12
-1.546961729e-09
2.92334872e-09
6.156892366e-10
-2.965723214e-11
-3.200159414e-09
4.777404349e-10
2.714358854e-09
-7.658751955e-11
-2.153965362e-09
2.983281512e-10
1.747347708e-09
-1.505528356e-10
-1.476945268e-09
2.181679809e-10
1.276374294e-09
-2.188099468e-10
-1.095784151e-09
1.589059922e-10
9.156584272e-10
-1.971022593e-10
-7.404724189e-10
1.073738004e-10
5.812651326e-10
-1.286652321e-10
-4.392513882e-10
6.134792401e-11
3.008531786e-10
-8.820063831e-11
-1.54661945e-10
9.981054095e-12
4.420242439e-11
2.64592623e-13
-1.845883892e-11
3.04793731e-12
1.239900415e-11
5.485156746e-13
-1.103803006e-11
3.310915312e-12
1.176812765e-11
6.781329292e-13
-1.433522443e-11
7.273226747e-12
1.913402258e-11
1.196334934e-12
-2.762044576e-11
8.819058858e-11
4.798205747e-11
3.191071883e-11
-1.563385985e-10
-1.745690421e-11
4.292112497e-10
1.348164222e-09
-6.956163733e-10
-6.14466964e-10
5.262467448e-10
7.533840806e-10
-1.155233494e-10
4.759124645e-09
-1.051456163e-11
-2.538760415e-09
1.660934512e-09
4.095318161e-09
-2.443680312e-09
-1.396421312e-09
1.490834247e-09
1.031371674e-09
-9.494552165e-10
-3.526285203e-10
8.801999388e-10
1.658732916e-09
-1.236801497e-09
-4.576192086e-10
2.07386137e-09
4.275722082e-09
-4.193930723e-09
-1.784750728e-09
9.180163201e-09
3.89577652e-09
-1.623186762e-08
-3.572281732e-09
1.986472355e-08
1.718424684e-09
-1.553698293e-08
-2.507133224e-09
6.97924486e-09
2.271791428e-10
-1.563577207e-09
-4.41203511e-10
2.172797762e-10
5.026267696e-12
-2.706816962e-11
-5.935601471e-12
4.306905623e-12
7.751090919e-13
-2.219406045e-12
-4.143718617e-13
5.232178854e-12
-2.521840217e-11
-4.070278903e-11
2.383660224e-11
1.258963442e-10
-4.399917131e-11
-3.177753491e-10
2.435170096e-10
3.748286494e-10
-3.398842358e-09
-1.93931424e-10
1.356171474e-08
-2.976116469e-11
-7.152526915e-12
1.738160161e-11
9.170842343e-12
-1.210458388e-11
-1.72888801e-12
1.595300489e-12
2.70453031e-12
5.113129967e-12
5.902143538e-12
-3.12420068e-12
-5.644140738e-11
9.576267567e-11
1.967554194e-11
-8.730499269e-12
-1.502175547e-10
4.496510031e-11
2.190003308e-10
-1.859012204e-11
-3.012602434e-10
8.135054931e-11
3.97907407e-10
-3.293476706e-11
-5.127537897e-10
1.200511834e-10
6.527030695e-10
-5.124676715e-11
-8.27771516e-10
1.280276182e-10
1.04461404e-09
-6.805519861e-11
-1.28036953e-09
4.13481575e-11
1.465569936e-09
-5.556960135e-11
-1.550329282e-09
-1.077736896e-10
1.635253528e-09
4.691866547e-10
-1.89454793e-09
-3.504401899e-10
1.89950971e-09
1.082213492e-09
-1.322769502e-09
-1.141325556e-10
7.172750794e-10
4.387100531e-10
-3.730731639e-10
-2.857076352e-11
2.011803634e-10
1.328228361e-10
-1.139302704e-10
-2.593117845e-11
7.421359227e-11
5.723196518e-11
-6.583189456e-11
-1.068523394e-10
7.92403417e-11
8.36848859e-11
-9.697633511e-11
-8.5041037e-10
3.422909462e-11
3.151734454e-10
2.032577853e-10
-1.392571083e-09
-1.088713467e-09
2.727672189e-09
8.715333999e-10
8.050537652e-10
-8.336137937e-10
3.590647889e-10
3.033624065e-10
2.038735005e-10
-1.83757794e-10
7.221255748e-12
1.555681136e-10
1.143579475e-10
-1.414430131e-10
-5.197527142e-11
1.72418769e-10
2.082544289e-10
-2.608427724e-10
-1.291620503e-10
3.962870701e-10
3.978484824e-10
-5.54632489e-10
-4.724995091e-11
9.199850267e-10
8.777667423e-10
-1.688633635e-09
-1.311359267e-11
2.663117401e-09
1.991190791e-10
-2.650913227e-09
6.680894943e-10
1.648810488e-09
4.465940655e-11
-5.36535505e-10
1.403609272e-10
6.543230152e-11
5.587150205e-13
-5.168567046e-12
1.461341259e-12
4.311513963e-13
-5.530762455e-14
-5.221101754e-14
8.527034793e-14
2.62076188e-14
-1.58040514e-10
-1.827271915e-12
4.812099408e-10
-3.738954214e-11
-5.407868322e-10
-6.39244234e-11
7.413404963e-10
5.761009429e-11
-2.899292665e-08
1.609612342e-10
3.704567163e-08
-1.034266243e-11
-1.553021426e-11
-1.831308809e-11
2.825101129e-11
6.694406834e-11
2.733845001e-12
-4.487825735e-12
2.14735156e-10
-1.397616656e-10
1.572194412e-13
2.103161623e-14
-2.763433975e-12
3.484744521e-12
2.72293805e-13
1.332572212e-14
-4.532998933e-12
5.035111978e-13
6.057359116e-12
6.157306008e-14
-8.248606157e-12
9.407719971e-13
1.134375332e-11
2.105146562e-13
-1.563980573e-11
1.68603676e-12
2.153052468e-11
5.28473342e-13
-2.967430596e-11
8.632138986e-12
4.775242026e-11
7.829233098e-12
-1.354649364e-10
3.557493772e-11
3.449928608e-10
3.770497017e-11
-9.295235788e-10
-6.591759437e-10
2.357861425e-09
1.0296823e-09
-4.464963416e-09
-2.205583874e-09
5.76204581e-09
3.747244782e-09
-5.057484778e-09
-1.13702807e-09
3.329716143e-09
2.502288683e-09
-1.923934387e-09
-3.963667945e-10
1.097261697e-09
9.746487258e-10
-6.398497755e-10
-1.55382574e-10
3.763322238e-10
4.182269824e-10
-2.195248841e-10
-8.347520996e-11
1.271794192e-10
1.969410258e-10
-7.258520372e-11
-2.227507701e-10
3.553353063e-11
4.331897168e-10
1.574824948e-10
-4.708763834e-09
1.224480501e-09
7.662210679e-09
-7.468366412e-10
-3.875160682e-10
1.954125375e-11
4.410439917e-10
1.184475559e-10
-2.585152448e-10
-2.916501565e-10
8.647657742e-10
6.049431708e-10
-6.304971536e-10
-1.083429949e-09
2.050820202e-09
1.629995444e-09
-3.348259277e-10
-1.683150054e-09
8.9424473e-10
8.1527207e-10
-3.837061155e-11
-4.296785328e-10
1.27627327e-10
2.65584278e-10
-7.60942096e-11
-1.755530719e-10
1.334956728e-11
2.569282223e-10
-3.387636359e-10
-3.954388796e-10
1.125245255e-10
4.665702771e-10
-2.148785416e-10
-4.509001005e-10
1.068981628e-10
3.808727856e-10
-7.438529147e-11
-3.051640946e-10
6.885199364e-11
2.398827578e-10
-2.482440371e-11
-1.853477293e-10
5.085792335e-11
1.394310389e-10
-5.536534543e-10
-9.40914276e-11
3.566553689e-10
2.09772753e-10
-8.253738963e-10
-1.692949071e-10
1.001962159e-09
1.365947122e-10
-2.623518284e-08
-9.896688648e-12
7.677511241e-09
9.612007365e-10
-1.006969512e-11
-2.201737645e-10
1.418479843e-11
1.495024328e-10
1.099309734e-11
-3.465387834e-12
1.479529058e-10
-1.449607735e-10
-9.019478591e-13
-5.092845318e-11
4.181580546e-11
-4.404481903e-13
7.3719625e-12
-3.991960314e-11
-3.821033723e-13
3.474060982e-11
7.099565845e-12
-2.603748602e-11
-6.279628155e-13
1.544576916e-11
4.822409341e-12
-7.484892284e-12
-1.631773034e-12
6.296852223e-12
7.952703272e-12
-1.34302138e-11
-8.278053711e-12
4.598703184e-11
8.015500838e-11
-1.568232532e-10
-9.710249692e-11
4.160557354e-10
3.637731374e-10
-8.89701327e-10
-1.008238996e-09
1.719072441e-09
9.514114728e-10
-3.323612069e-09
-4.832303873e-09
6.117079686e-09
4.326938631e-09
-8.153086667e-09
-4.607529655e-09
7.802713164e-09
6.68316835e-09
-5.91034443e-09
-2.14013846e-09
3.929805867e-09
4.101693722e-09
-2.467939748e-09
-9.853344551e-10
1.519418948e-09
2.042700418e-09
-9.330138574e-10
-5.091836323e-10
5.82069834e-10
1.071215525e-09
-3.890455009e-10
-7.616499961e-10
3.441611443e-10
1.26933578e-09
-6.96859801e-10
-9.746743586e-09
2.610284565e-09
9.174088118e-09
-1.274285303e-09
-7.423018265e-10
9.84658663e-11
1.387657937e-09
2.857902344e-10
-1.976882692e-09
-8.874770934e-10
3.740995553e-09
1.815396816e-09
-3.604777997e-09
-2.796228872e-09
4.140972318e-09
2.687896378e-09
-8.994621212e-10
-1.523141704e-09
5.574795766e-10
6.231474667e-10
-1.39706074e-10
-2.994544409e-10
9.842222805e-11
1.712641146e-10
2.116746001e-11
-1.27793147e-10
9.307942182e-12
7.507681033e-11
7.275257164e-12
-4.430461036e-11
3.23138587e-12
2.693880657e-11
-1.786421916e-11
-1.742898637e-11
9.780451659e-12
2.310584705e-11
-1.423712906e-10
-9.02366225e-11
9.732779358e-11
1.647416722e-10
-1.443855723e-10
-2.269352179e-10
1.43341881e-10
2.617185121e-10
-2.623952072e-10
-2.726776736e-10
2.237123133e-10
3.146916065e-10
-1.115054939e-09
-5.972951242e-10
9.550498817e-10
6.170544205e-10
-8.258212505e-10
-4.61079918e-10
2.525294925e-10
3.551242946e-10
-3.605027767e-11
-2.763325415e-10
8.081412397e-11
2.381580079e-10
-1.263341161e-11
9.058611369e-12
2.240481917e-10
-2.112436625e-10
1.781229595e-10
-2.185739544e-11
6.347177932e-11
-2.335989548e-10
-4.655727165e-11
3.179239349e-10
2.901464504e-10
-3.577781565e-10
-1.092752856e-10
2.818968455e-10
2.467380197e-10
-2.010963533e-10
-8.512710135e-11
2.120153659e-10
1.685686287e-10
-2.990472002e-10
-2.1491881e-10
4.163309249e-10
3.029858071e-10
-5.51914491e-10
-4.820273558e-10
6.983376361e-10
5.241881245e-10
-8.501043596e-10
-8.553018943e-10
1.0227508e-09
7.257404055e-10
-1.341890993e-09
-2.937214845e-09
2.196774046e-09
1.769237006e-09
-4.133673676e-09
-7.393383015e-09
6.407776007e-09
6.277613508e-09
-7.55983074e-09
-6.487759298e-09
7.074975418e-09
8.09904528e-09
-5.566589009e-09
-3.663652655e-09
3.883598409e-09
5.491004636e-09
-2.706431218e-09
-2.105606718e-09
3.203106634e-09
5.215731472e-09
-6.424124401e-09
-2.259622302e-09
8.94694324e-09
1.131646235e-08
-8.409264946e-09
-7.722482062e-09
5.457932268e-09
8.961755963e-09
-1.452537433e-09
-2.28886973e-09
-5.340222249e-10
6.679726503e-09
3.198741482e-09
-6.48143308e-09
-6.295741371e-09
1.519491889e-08
6.566979242e-09
-3.09982818e-09
-3.538903656e-09
1.627722573e-09
9.603137681e-10