/*--------------------------------*- C++ -*----------------------------------*\
| =========                 |                                                 |
| \\      /  F ield         | OpenFOAM: The Open Source CFD Toolbox           |
|  \\    /   O peration     | Version:  2.1.x                                 |
|   \\  /    A nd           | Web:      www.OpenFOAM.org                      |
|    \\/     M anipulation  |                                                 |
\*---------------------------------------------------------------------------*/
FoamFile
{
    version     2.0;
    format      ascii;
    class       volVectorField;
    location    "1.2";
    object      Uf;
}
// * * * * * * * * * * * * * * * * * * * * * * * * * * * * * * * * * * * * * //

dimensions      [0 1 -1 0 0 0 0];

internalField   nonuniform List<vector> 
2828
(
(-0.3501359533 0 -0.03551087812)
(-0.7627974169 0 0.1854193571)
(-0.6072333476 0 0.2068940108)
(-0.5122207793 0 0.2193030577)
(-0.4708299773 0 0.203965117)
(-0.3365131058 0 -0.1723189579)
(-0.3742537432 0 -0.1502435589)
(-0.4821022251 0 -0.143019836)
(-0.512950991 0 -0.1038408109)
(-0.4739651375 0 -0.04775001811)
(-0.7348962824 0 0.1926920278)
(-0.5536592069 0 0.2125381983)
(-0.4876233419 0 0.2334354528)
(-0.445455372 0 0.2083430547)
(-0.413080069 0 0.121441485)
(-0.284587052 0 0.06367288079)
(-0.3004736815 0 0.08749829338)
(-0.415762312 0 -0.3229626466)
(-0.3909003879 0 -0.2718489043)
(-0.3829104686 0 -0.2161053246)
(-0.4341723127 0 -0.1844624672)
(-0.4982989549 0 -0.1615778528)
(-0.53718596 0 -0.1179780715)
(-0.6306809457 0 -0.06277545899)
(-0.6197619186 0 0.1802684918)
(-0.5373954088 0 0.1923212677)
(-0.4616003825 0 0.234535024)
(-0.4104906658 0 0.2136712592)
(-0.5430632117 0 0.06321265001)
(-0.313067576 0 0.07001291249)
(-0.3517160425 0 0.09992643668)
(-0.4227134047 0 0.3952667753)
(-0.4053626547 0 0.4287341617)
(-0.4421479876 0 -0.3954569986)
(-0.4388941161 0 -0.3587105667)
(-0.4265346665 0 -0.3087382488)
(-0.4234835318 0 -0.2531853003)
(-0.4547760501 0 -0.215095624)
(-0.4985140907 0 -0.1889461548)
(-0.5463343673 0 -0.1417477615)
(-0.7262672 0 -0.07548572104)
(-0.5298386337 0 0.109593215)
(-0.6197169307 0 0.1663285504)
(-0.4758856982 0 0.2157782455)
(-0.3808292928 0 0.1937520475)
(-0.6273183382 0 0.03683532172)
(-0.4152436332 0 0.0852149451)
(-0.412242028 0 0.1143071954)
(-0.5338806016 0 0.5718103134)
(-0.4676503425 0 0.4536773795)
(-0.3811543114 0 0.3573725293)
(-0.311361315 0 0.2972747123)
(-0.4254586315 0 -0.4414375531)
(-0.4497540081 0 -0.432151843)
(-0.4595390297 0 -0.4003946878)
(-0.4566697084 0 -0.3505083732)
(-0.4480642416 0 -0.2893410461)
(-0.4585067627 0 -0.2493201772)
(-0.4900650318 0 -0.2243608666)
(-0.5312005331 0 -0.175440422)
(-0.6995030859 0 -0.09277207244)
(-0.6530432944 0 0.03758209125)
(-0.6639560916 0 0.1304450551)
(-0.4799116759 0 0.182378211)
(-0.3735090793 0 0.08371398769)
(-0.6270311211 0 0.0386504778)
(-0.4870621903 0 0.0869979531)
(-0.5059304328 0 0.2000181656)
(-0.5649039652 0 0.5329538737)
(-0.5308639629 0 0.4145041571)
(-0.414376315 0 0.3363595469)
(-0.2875397226 0 0.2970417985)
(-0.2127199674 0 0.2965244392)
(-0.3681110883 0 -0.4334863841)
(-0.4027125653 0 -0.4543634288)
(-0.4359743089 0 -0.4578138641)
(-0.4608028458 0 -0.4387446617)
(-0.4689223757 0 -0.3947897977)
(-0.4528805551 0 -0.3329771904)
(-0.4462168525 0 -0.2937782394)
(-0.4779225175 0 -0.2674162402)
(-0.5217096548 0 -0.2166305179)
(-0.5871085912 0 -0.1257798867)
(-0.7044564833 0 -0.01152994456)
(-0.6314058334 0 0.09194461538)
(-0.4252573853 0 0.1191344412)
(-0.4142318358 0 -0.05654234035)
(-0.5753946794 0 0.03810283233)
(-0.5022245809 0 0.0837891117)
(-0.5599237414 0 0.1495501082)
(-0.6524532151 0 0.3927885367)
(-0.6209663063 0 0.4246306315)
(-0.4299019742 0 0.5336313251)
(-0.3027811225 0 0.5395903793)
(-0.2495333927 0 0.5088885922)
(-0.2216183751 0 0.4826975913)
(-0.301776947 0 -0.3853149866)
(-0.328770937 0 -0.4167311443)
(-0.3667325222 0 -0.4529447516)
(-0.4061414059 0 -0.4733895179)
(-0.4380836166 0 -0.470540848)
(-0.4479318775 0 -0.4400056858)
(-0.4234970596 0 -0.3879561253)
(-0.4187502871 0 -0.3524164908)
(-0.4673212657 0 -0.322492779)
(-0.5357640924 0 -0.2624836849)
(-0.585953998 0 -0.1512403882)
(-0.6832507461 0 -0.04893093059)
(-0.557641941 0 0.07083255682)
(-0.3490228028 0 0.003352068883)
(-0.4239394318 0 -0.08615067526)
(-0.5322065148 0 0.03774479316)
(-0.5169218257 0 0.08965143275)
(-0.7427109326 0 0.2021178013)
(-0.2411062738 0 0.3497343874)
(-0.726612704 0 1.08115605)
(-0.4887981486 0 0.9913786127)
(-0.3677501291 0 0.9095049715)
(-0.2966557258 0 0.8362136689)
(-0.2334610732 0 0.7208186194)
(-0.223936268 0 -0.3041323715)
(-0.2528370829 0 -0.3395275435)
(-0.2851756619 0 -0.3857805181)
(-0.3242116202 0 -0.4390735922)
(-0.3643298843 0 -0.4798893097)
(-0.3878060668 0 -0.4975797074)
(-0.3804056615 0 -0.4903710146)
(-0.3555278613 0 -0.4565640575)
(-0.3801653334 0 -0.4282592304)
(-0.4566846797 0 -0.3911487507)
(-0.8098137058 0 -0.1852106406)
(-0.6485292434 0 -0.2249052708)
(-0.7763176131 0 -0.09629241607)
(-0.515421207 0 0.08644617374)
(-0.4083696738 0 0.08382675145)
(-0.4310666362 0 -0.1117030189)
(-0.5428893975 0 0.0436015957)
(-0.6091343841 0 0.1208323595)
(-1.094916799 0 0.3346955827)
(-0.4284118606 0 0.3674769814)
(-0.4112119572 0 0.8279853085)
(-0.3815561583 0 1.253468321)
(-0.2942482814 0 1.251225072)
(-0.2275782363 0 1.115341376)
(-0.1707141457 0 0.9010573698)
(-0.2092125836 0 -0.1901507127)
(-0.1901559749 0 -0.2678937553)
(-0.2071094745 0 -0.2893141542)
(-0.2385778677 0 -0.3386300424)
(-0.2754064873 0 -0.4057173121)
(-0.309228606 0 -0.4712709921)
(-0.3042686769 0 -0.5177512448)
(-0.2696677977 0 -0.5415311591)
(-0.2764779649 0 -0.531920424)
(-0.3332415888 0 -0.5099596772)
(-0.4782019265 0 -0.4323400955)
(-1.216303365 0 0.06304952419)
(-1.097407136 0 -0.2038403745)
(-1.051415875 0 -0.205240539)
(-0.5918773098 0 0.1749155947)
(-0.3753004342 0 0.1744634037)
(-0.4116065499 0 -0.0329752252)
(-0.57955048 0 0.0486878167)
(-0.7704682738 0 0.2091058305)
(-0.9482382015 0 1.16087194)
(-0.2464908528 0 0.07429083172)
(-0.04015104726 0 0.2867320991)
(0.3588680449 0 0.8008367911)
(0.2726607086 0 0.7600958291)
(0.0350843503 0 0.5194625263)
(-0.100068678 0 0.3600667741)
(0.1449177158 0 -0.05557608526)
(-0.1889992973 0 0.1089254733)
(-0.1915127518 0 -0.2644961918)
(-0.1695897557 0 -0.2488181915)
(-0.1750542318 0 -0.2575758956)
(-0.2000942148 0 -0.292672738)
(-0.2284736043 0 -0.3527675573)
(-0.2425808975 0 -0.4313212558)
(-0.2163403445 0 -0.5210510644)
(-0.1985309891 0 -0.5829658207)
(-0.2286570437 0 -0.5894022209)
(-0.2800713389 0 -0.5670235421)
(-0.4513595342 0 -0.4704581335)
(-1.324021357 0 0.1806236738)
(-1.616297307 0 -0.1734724927)
(-1.49802634 0 -0.5141129206)
(-0.6732774277 0 0.3747398032)
(-0.3164479021 0 0.2789686903)
(-0.3628131603 0 0.2284179818)
(-0.1817926917 0 -0.08670556028)
(0.5793136807 0 0.2893432172)
(-0.0135260584 0 0.2430895078)
(-0.2009864662 0 -0.02828186853)
(-0.04482425965 0 0.1657988625)
(0.1130607011 0 0.2967184339)
(0.1428962751 0 0.3406004554)
(0.1402864646 0 0.3858305539)
(0.09520735783 0 0.434734834)
(-0.6638228942 0 0.541799005)
(-0.03695192406 0 0.004677464243)
(-0.2855533714 0 -0.3881493307)
(-0.1863778244 0 -0.2682017218)
(-0.1443448454 0 -0.2331840921)
(-0.1727150756 0 -0.2792377708)
(-0.2292836468 0 -0.40446722)
(-0.2623599465 0 -0.5333422668)
(-0.2404214217 0 -0.5870616896)
(-0.1930355222 0 -0.6130744113)
(-0.1704069153 0 -0.624917604)
(-0.1950649765 0 -0.6176641722)
(-0.381710115 0 -0.5668108852)
(-1.816873813 0 -0.5908773092)
(-2.037903945 0 -0.4715672427)
(-1.825016059 0 -1.162726408)
(-0.4164465296 0 0.5831428046)
(-0.4652008745 0 0.4260579988)
(-0.2995327833 0 0.3480608885)
(-0.6271384526 0 -0.4148280626)
(-0.767910284 0 0.5298207818)
(-0.5459115227 0 0.4948766107)
(-0.2366606261 0 0.04574298692)
(-0.4212754926 0 -0.1574339186)
(-0.9431639797 0 0.3098973636)
(-0.8904773932 0 0.633677645)
(-0.6078814612 0 0.6082974813)
(-0.4230550702 0 0.5006577876)
(-2.879249208 0 0.3163704078)
(-1.169347031 0 0.9778413089)
(-0.3855766654 0 -0.6588204097)
(-0.272007472 0 -0.4547870979)
(-0.1605063183 0 -0.4090156687)
(-0.2315143048 0 -0.6380599049)
(-0.2931697074 0 -0.7708024345)
(-0.3050610414 0 -0.7892040001)
(-0.2483230932 0 -0.7610296897)
(-0.1604727666 0 -0.7327161106)
(-0.09117470385 0 -0.6881597061)
(-0.1027116145 0 -0.6851547309)
(-1.315471135 0 -1.381828916)
(-2.208917849 0 -1.443861435)
(-2.464384156 0 -1.047429323)
(-1.21688722 0 -2.390315946)
(-0.3390661985 0 0.5329345578)
(-1.147008541 0 0.3224971381)
(-0.7675678238 0 0.2574452649)
(-0.4625035722 0 -0.5350234085)
(-1.475441212 0 1.16574748)
(-1.411448138 0 1.362156152)
(-1.064272882 0 1.221151)
(-0.5373762749 0 -0.1000698658)
(-1.283443377 0 0.5850872517)
(-0.8700522449 0 0.8897811399)
(-0.5464005844 0 0.7458140755)
(-0.5261825875 0 1.200174387)
(-2.957961547 0 0.1577183399)
(-1.057900639 0 0.6444211893)
(-0.1626047003 0 0.9689556043)
(-0.1628234213 0 -0.6056417808)
(-0.2488555779 0 -0.9684622916)
(-0.2737598636 0 -1.076382437)
(-0.2833219932 0 -1.070696463)
(-0.2860821846 0 -0.9708343829)
(-0.2976737639 0 -0.8806712132)
(-0.3284393794 0 -0.833804785)
(-0.3438891817 0 -0.7716281284)
(-0.315107195 0 -0.7239776153)
(-0.8193005449 0 -1.362553716)
(-1.699904731 0 -2.29195495)
(-2.131081698 0 -2.198845939)
(-2.344133323 0 -1.593935551)
(0.6213836659 0 -0.3374920434)
(-0.3822173484 0 0.4888826811)
(-1.192112565 0 0.4664560734)
(-1.24923364 0 0.6122054336)
(-0.8710198576 0 0.4939052137)
(-1.112984672 0 1.214737759)
(-1.17474186 0 1.617988118)
(-1.126822352 0 1.933331746)
(-0.9024899346 0 1.670096333)
(-0.7154866061 0 0.9253575813)
(-0.5133731272 0 1.082484313)
(-0.3236430923 0 0.7619673913)
(-0.893160565 0 -0.5993968572)
(-2.523753329 0 0.03729016312)
(-0.2143273543 0 0.2078359376)
(0.06937745498 0 -0.2746765352)
(-0.1687313811 0 -0.7532305732)
(-0.2208549876 0 -1.117711054)
(-0.2303356316 0 -1.260614238)
(-0.2244163764 0 -1.203198291)
(-0.2088660873 0 -1.065165112)
(-0.2126498398 0 -1.017174017)
(-0.2494255315 0 -1.089273387)
(-0.3222909061 0 -1.244175179)
(-0.4399174622 0 -1.439058142)
(-0.6381927151 0 -1.610408751)
(-1.081860862 0 -2.089643018)
(-1.296390139 0 -2.682983474)
(-1.371590598 0 -2.769998274)
(-1.735682759 0 -2.957322873)
(-0.4599319391 0 1.972758137)
(-0.6881766975 0 1.420922429)
(-1.006121464 0 0.6709347443)
(-1.327318249 0 0.8430353682)
(-1.215959286 0 1.123200181)
(-1.006368596 0 1.379297635)
(-0.7389140118 0 1.588725071)
(-0.6664485305 0 1.989788722)
(-0.6984165266 0 2.315941717)
(-0.5283876934 0 1.831945825)
(0.2013932304 0 0.4441571376)
(-0.3351985731 0 -0.9949224342)
(-0.5761127273 0 -1.39422767)
(-1.366915185 0 -0.04113623768)
(-0.5269979543 0 0.9677521065)
(0.188621145 0 -0.3572302194)
(-0.09851918405 0 -0.4306009648)
(-0.1332836982 0 -0.8491445388)
(-0.1482962197 0 -0.9786137831)
(-0.1410701955 0 -0.9154289919)
(-0.1271411826 0 -0.8358509658)
(-0.1139567873 0 -0.8073016885)
(-0.1143661833 0 -0.8563983877)
(-0.1392078306 0 -1.024395726)
(-0.2122071122 0 -1.438788641)
(-0.3372415282 0 -2.084039164)
(-0.5158036914 0 -2.781290985)
(-0.7339763258 0 -2.376667543)
(-0.4835850292 0 -0.2254459841)
(1.494311041 0 -0.1966698998)
(0.267798679 0 -0.5561666475)
(-1.447986635 0 0.5856186593)
(-1.301866395 0 0.3997445426)
(-1.209626123 0 0.9358763393)
(-1.118562888 0 1.370130887)
(-0.6947459198 0 1.712428174)
(-0.1092917964 0 1.629656812)
(-0.1134611635 0 1.199312606)
(-0.536019558 0 0.5079998873)
(-0.4163188383 0 0.4129809829)
(-0.1338713643 0 0.2438656623)
(0.03685422436 0 0.210612108)
(0.03783676939 0 0.1418960477)
(2.218237976 0 -0.01449563946)
(0.09419854973 0 -0.1598547166)
(0.05507227432 0 -0.02379162791)
(-0.1071607075 0 -0.5362026033)
(-0.1287448129 0 -0.6068004535)
(-0.1479033731 0 -0.6682257286)
(-0.1578037415 0 -0.6905320465)
(-0.1497439855 0 -0.6501902371)
(-0.08960677676 0 -0.5658005432)
(-0.003090683677 0 -0.5125670186)
(0.1239446783 0 -0.5597494297)
(0.3901050462 0 -0.8794892942)
(0.5881952715 0 -1.087464424)
(0.8077078794 0 -1.281376706)
(1.069310893 0 -1.384650476)
(1.414981017 0 -1.246161608)
(0.6364715697 0 0.8417933948)
(1.167996642 0 0.2531297717)
(-0.7892817972 0 0.5130088508)
(-1.184901416 0 0.4443482078)
(-1.033616606 0 1.81928511)
(-0.7338216423 0 1.637768307)
(-0.6422258546 0 1.557969369)
(-0.490685803 0 1.479828162)
(0.1165346583 0 1.258682573)
(0.1407091263 0 0.3244981668)
(0.03948369739 0 0.1640396921)
(0.03394948381 0 0.1479944932)
(0.1100841039 0 -0.0257518624)
(0.1257522565 0 0.01059022311)
(2.006894207 0 -0.01279075469)
(0.04571700542 0 0.05402864541)
(0.008264167322 0 0.1569351629)
(-0.08148919679 0 -1.173794262)
(-0.09836054201 0 -1.428846898)
(-0.1149878352 0 -1.701452169)
(-0.1294075723 0 -1.957998941)
(-0.1260638613 0 -1.996686806)
(0.03424002169 0 -0.4540612189)
(0.004242723752 0 -0.4197580799)
(0.2265332122 0 -0.6252171185)
(0.5692092986 0 -0.9583573764)
(0.7891826288 0 -1.104809584)
(0.8759658096 0 -1.004007497)
(1.01045818 0 -0.8832907245)
(1.189479698 0 -0.663457081)
(0.5808118462 0 0.3110616855)
(1.184838011 0 -0.5079079145)
(2.04409667 0 0.326887589)
(1.405884493 0 0.9847593276)
(1.036039907 0 1.082187808)
(0.4836165387 0 0.4093776162)
(0.2058737797 0 0.4850126967)
(0.2429354193 0 0.4098821049)
(0.4260073378 0 0.5834887665)
(0.5698431942 0 0.9809090272)
(0.6487255697 0 1.278699007)
(0.6402922368 0 1.370639079)
(0.2204046199 0 0.2632725389)
(0.1412732162 0 0.03767675488)
(1.277076024 0 0.01556028739)
(0.001560943458 0 0.3684072028)
(-0.05338162289 0 0.4511885968)
(0.05651868467 0 -0.3579904359)
(0.07431467079 0 -0.3929961301)
(0.1042327992 0 -0.4525308081)
(0.1319980418 0 -0.4782453818)
(0.1115281056 0 -0.4127935459)
(0.2300168001 0 -0.6066881903)
(0.5544958417 0 -1.223179013)
(0.4105741967 0 -0.8099798042)
(0.5582646861 0 -0.8168113568)
(0.8515053933 0 -1.008364908)
(1.03117578 0 -0.9673092746)
(1.075612074 0 -0.7604181591)
(1.041015669 0 -0.4986961709)
(0.7028178879 0 -0.08773546642)
(1.329730873 0 -0.5847606485)
(2.106832867 0 0.2897752819)
(1.708321063 0 0.8036093722)
(1.133047663 0 0.8285608069)
(0.4396771514 0 0.4715145993)
(0.2816397601 0 0.4959852562)
(-0.6158619518 0 1.444705689)
(-0.5262751217 0 1.274583271)
(0.01454010163 0 0.7889686943)
(0.2386907623 0 0.5595107989)
(0.3223592907 0 0.5977546091)
(0.2841855377 0 0.5556368921)
(0.2131304821 0 0.1505858652)
(0.166508483 0 0.1933118005)
(0.120107575 0 0.3661178409)
(0.08018854683 0 0.4382451106)
(0.06081221883 0 -0.2205817304)
(0.1670615658 0 -0.3730904996)
(0.5519241648 0 -0.8443321363)
(1.068791879 0 -1.506848327)
(1.350095034 0 -1.806768885)
(1.332427438 0 -1.682741921)
(0.8803034626 0 -1.057847629)
(0.4821598361 0 -0.5820396385)
(0.7404622919 0 -0.764568143)
(0.9970897503 0 -0.8412789099)
(1.126300829 0 -0.7436543004)
(1.466000471 0 -1.112349633)
(2.99711875 0 -2.929134916)
(2.928346339 0 -1.941448779)
(3.6566143 0 1.893102372)
(2.567866665 0 1.40868543)
(0.8709292617 0 0.5117823482)
(0.4323668643 0 0.3895030179)
(0.3286506135 0 0.4243438156)
(1.124329041 0 1.472303341)
(1.163187539 0 2.230352767)
(0.9010051851 0 2.046892105)
(0.6238338014 0 1.511712612)
(0.4343075073 0 1.07569461)
(0.3156650902 0 0.7623130786)
(0.2304239683 0 0.4270797567)
(0.1931424145 0 0.3802793701)
(0.1597788813 0 0.3565535598)
(0.1309154757 0 0.3409704169)
(0.2691357675 0 -0.5767762545)
(0.5906063664 0 -0.8598827387)
(0.7808885782 0 -1.058410285)
(0.9977111345 0 -1.287117031)
(1.137686385 0 -1.388596286)
(1.183173562 0 -1.348987785)
(0.8675577658 0 -0.9134405205)
(0.4963519205 0 -0.4128906616)
(0.6259522049 0 -0.4861989802)
(0.8175815109 0 -0.6199127385)
(0.9765477376 0 -0.6525944625)
(1.224045973 0 -0.7871452286)
(3.81175023 0 -2.688028893)
(5.620570989 0 -2.263006684)
(4.469542831 0 1.850519075)
(2.505262801 0 1.255225355)
(0.7951902984 0 0.6064622097)
(0.4692949151 0 0.3645163907)
(0.3346872495 0 0.3353565069)
(0.9108095353 0 0.964191601)
(1.152668968 0 1.501979486)
(0.9998698376 0 1.579437547)
(0.782917715 0 1.416658592)
(0.575279697 0 1.1410665)
(0.4172813934 0 0.8739917318)
(0.3041362887 0 0.6474843603)
(0.2456642585 0 0.5161624157)
(0.212442176 0 0.4406627516)
(0.1763186106 0 0.3733444258)
(0.593292284 0 -0.8529492865)
(0.8404963173 0 -1.11955236)
(0.9071099512 0 -1.155531886)
(0.9423675875 0 -1.142860463)
(0.9825087717 0 -1.125421133)
(0.9410276133 0 -1.003944004)
(0.6366920312 0 -0.5888983107)
(0.5746597602 0 -0.3909686324)
(0.684399697 0 -0.3979431575)
(0.7506705823 0 -0.4595442253)
(0.7717252099 0 -0.513145445)
(0.8293367807 0 -0.5376912837)
(3.026071709 0 -1.569122576)
(6.231000657 0 -1.714263336)
(3.383211046 0 1.19798338)
(1.393899889 0 0.6989437538)
(0.8299386204 0 0.5678623726)
(0.5572400992 0 0.4773885359)
(0.3259346054 0 0.3532380299)
(0.192600913 0 0.30153932)
(0.33842401 0 0.4259199034)
(0.5368053318 0 0.6628685073)
(0.5922309606 0 0.8232647593)
(0.5477502618 0 0.8536638098)
(0.4622820325 0 0.7878967213)
(0.3687726174 0 0.6703190914)
(0.3003455597 0 0.5658586043)
(0.2684964269 0 0.5106603369)
(0.9192144764 0 -1.179080514)
(1.013375279 0 -1.241456768)
(0.9358784177 0 -1.091734799)
(0.8464897099 0 -0.9345554412)
(0.7131177615 0 -0.7281961086)
(0.545309094 0 -0.4540206594)
(0.6318768248 0 -0.4067202219)
(0.7649956339 0 -0.4160832078)
(0.8231937491 0 -0.4475184178)
(0.7685103196 0 -0.4629616346)
(0.926399797 0 -0.5106210468)
(1.679660811 0 -0.7313259721)
(5.200953745 0 -1.146186683)
(1.748561281 0 0.6203446162)
(0.8845125014 0 0.4473449438)
(0.1511163544 0 -0.0323893312)
(0.1828877159 0 0.1187051467)
(0.1256822779 0 -0.01853569255)
(0.1640261481 0 0.1102213607)
(0.1385477626 0 0.2397434998)
(0.1637147475 0 0.3480628866)
(0.2305871966 0 0.4117389093)
(0.298768489 0 0.460377447)
(0.3314815372 0 0.5107981126)
(0.3322340624 0 0.5505526552)
(0.3265905293 0 0.5783465788)
(0.3255882203 0 0.6037716404)
(0.6995628151 0 -0.888863764)
(0.8939971673 0 -1.077481948)
(0.8493393371 0 -0.9770219248)
(0.7017481298 0 -0.761454561)
(0.5410950966 0 -0.5295035557)
(0.4868546631 0 -0.3903827107)
(0.6174717422 0 -0.3943842767)
(0.7897257967 0 -0.4278605796)
(0.8946385058 0 -0.468410019)
(0.8755820632 0 -0.478209536)
(0.9869296082 0 -0.4601280483)
(1.448620198 0 -0.5009216203)
(1.534441046 0 -0.2936441148)
(0.4371385746 0 -0.1312359662)
(0.2857969343 0 -0.1150424719)
(0.2370831272 0 -0.01738604868)
(-0.06682623584 0 -0.2911040634)
(-0.1345718107 0 -0.309659811)
(-0.1033524375 0 -0.1989688751)
(0.1581453171 0 0.1311285677)
(0.203556778 0 0.269140194)
(0.246139475 0 0.3743508381)
(0.2935349175 0 0.4550531564)
(0.3329712513 0 0.5228130809)
(0.3555616465 0 0.5866443962)
(0.3613448239 0 0.639641123)
(0.4729685753 0 -0.5725370949)
(0.5182226799 0 -0.5815459667)
(0.4502065087 0 -0.4570643451)
(0.4169354385 0 -0.3736999644)
(0.4137479923 0 -0.3306837341)
(0.4963346098 0 -0.3256298154)
(0.7290410709 0 -0.3875304051)
(0.931141512 0 -0.4633334802)
(1.015639846 0 -0.4931365386)
(1.101775926 0 -0.4416433769)
(1.27522382 0 -0.3543718854)
(0.7925801466 0 -0.2119441487)
(0.3029078143 0 -0.202981562)
(0.2438817857 0 -0.03135333552)
(-0.06104896638 0 -0.08407619708)
(-0.3556109901 0 -0.3861535669)
(-0.3347023505 0 -0.3975546054)
(-0.2855100151 0 -0.3608849094)
(-0.1737382788 0 -0.222439655)
(0.1654525843 0 0.1625387912)
(0.2455770518 0 0.2934657532)
(0.3060247928 0 0.4014154862)
(0.3467545436 0 0.4908290595)
(0.3645607024 0 0.5603597119)
(0.3673542512 0 0.6069812749)
(0.3759401016 0 -0.4220469346)
(0.382590695 0 -0.3893904944)
(0.3817591092 0 -0.3535765381)
(0.376976838 0 -0.3204567524)
(0.3622429202 0 -0.2854286371)
(0.3488893969 0 -0.24506741)
(0.5428091446 0 -0.2713070802)
(0.9017679845 0 -0.4076248812)
(1.1115177 0 -0.4798164948)
(1.288243349 0 -0.4565109441)
(1.426315462 0 -0.3524015643)
(1.172202308 0 -0.2355692957)
(0.1954320779 0 -0.1089626696)
(0.09294068778 0 -0.06896539418)
(-0.2434160552 0 -0.1630610776)
(-0.3374800403 0 -0.2636034369)
(-0.4321845836 0 -0.3641183747)
(-0.511622852 0 -0.457609083)
(-0.5328277636 0 -0.4686286102)
(-0.4476054236 0 -0.381848809)
(0.2294294338 0 0.2118817765)
(0.2871467644 0 0.3204680282)
(0.3150733001 0 0.4083466204)
(0.3157402659 0 0.4645173317)
(0.3908382211 0 -0.3722078522)
(0.3780450978 0 -0.3346382201)
(0.3590846464 0 -0.2930401335)
(0.3295347409 0 -0.2487523183)
(0.3087813662 0 -0.2010716466)
(0.3947647642 0 -0.1662475198)
(0.7686371579 0 -0.2883016401)
(1.066659202 0 -0.4168097794)
(1.29423174 0 -0.4357358735)
(1.488794071 0 -0.3754538742)
(1.344533012 0 -0.2706106595)
(0.2170590937 0 -0.06829087329)
(0.2330057755 0 -0.01575259849)
(0.346238439 0 0.2813195439)
(0.2492450546 0 0.253348028)
(-0.3595739018 0 -0.2864023058)
(-0.5215993155 0 -0.4684898805)
(-0.6240652756 0 -0.5501127806)
(-0.6772156337 0 -0.5815932941)
(-0.5979788098 0 -0.4994994203)
(0.2854807222 0 0.2239552893)
(0.2881098485 0 0.2912218413)
(0.3497586059 0 -0.2893026792)
(0.3239562758 0 -0.2423771612)
(0.300211716 0 -0.2002214652)
(0.3177219045 0 -0.166924989)
(0.4243394312 0 -0.1463557054)
(0.6171087802 0 -0.1590583588)
(0.8847739085 0 -0.2948976834)
(1.084738705 0 -0.3544441881)
(1.273614722 0 -0.3375412893)
(1.164686994 0 -0.2493949136)
(0.2973786091 0 -0.07339685131)
(0.6657023158 0 0.003630915177)
(0.4909618834 0 0.2947625251)
(0.2963586345 0 0.2367546221)
(-0.08723777053 0 -0.01665023206)
(-0.4609705141 0 -0.413758809)
(-0.6379005616 0 -0.5740597073)
(-0.7681863534 0 -0.6762642925)
(-0.8352015939 0 -0.6997911756)
(0.3106654358 0 0.2011808781)
(0.2883223235 0 -0.1547225812)
(0.3402305615 0 -0.1464024496)
(0.4705109025 0 -0.1443924346)
(0.6573496514 0 -0.1488590628)
(0.7115073325 0 -0.162784899)
(0.7557875102 0 -0.2088913969)
(0.8351889557 0 -0.2239489958)
(0.763989866 0 -0.1697081137)
(0.4021814356 0 -0.0586712976)
(0.8121866189 0 0.001201322677)
(0.509025042 0 0.2215204455)
(0.3176687751 0 0.2055229047)
(0.1871737682 0 0.1486327734)
(-0.4015911936 0 -0.199114645)
(-0.5418630663 0 -0.5004177571)
(-0.7863112683 0 -0.7242076491)
(-0.8974668807 0 -0.7890689273)
(0.3465713392 0 -0.1343148698)
(0.5121113768 0 -0.1543331862)
(0.7497923196 0 -0.1715759321)
(0.7618069657 0 -0.1511033807)
(0.6374937228 0 -0.1365894723)
(0.4136373796 0 -0.1062506372)
(0.4878041744 0 -0.09465133269)
(0.4866988929 0 -0.04795514308)
(0.7793532884 0 0.003494567854)
(1.253253832 0 0.2538059267)
(1.794384678 0 1.419603748)
(0.5698894543 0 0.5067993693)
(0.719094626 0 0.6825442278)
(0.0899647829 0 0.01047447416)
(0.8371258476 0 -0.1668706036)
(0.6965901526 0 -0.1464783604)
(0.4312794024 0 -0.1098751183)
(0.5145993191 0 -0.09465302604)
(0.5429850322 0 -0.04559773922)
(0.7254806893 0 0.004599993379)
(0.5160361861 0 0.1054613243)
(1.778335575 0 1.043750367)
(1.090143206 0 0.9063695822)
(-0.4236902367 0 -0.1430583413)
(-0.4622058135 0 -0.1373344547)
(-0.4843704441 0 -0.1223234223)
(-0.4897480816 0 -0.1050799847)
(-0.4650438659 0 -0.07331091565)
(-0.4490733357 0 -0.06945266073)
(-0.400071057 0 -0.04143408616)
(-0.8242332898 0 0.1594456837)
(-0.8473247426 0 0.1653122972)
(-0.7549232606 0 0.1898301239)
(-0.6495944666 0 0.1992925554)
(-0.6700338145 0 0.1949997853)
(-0.5869654909 0 0.2119944095)
(-0.5429739339 0 0.2239408504)
(-0.5579727332 0 0.2175394295)
(-0.502121703 0 0.226873245)
(-0.4706891639 0 0.2183881016)
(-0.4803514237 0 0.2125316649)
(-0.4640579887 0 0.2019003579)
(-0.4363414816 0 0.1804808739)
(-0.3920356136 0 0.1411919755)
(-0.3169844847 0 0.09356999105)
(-0.2864425127 0 0.06610979598)
(-0.37659685 0 -0.2534273334)
(-0.3599943854 0 -0.2219276959)
(-0.3510883281 0 -0.1903172459)
(-0.3736315544 0 -0.1749370671)
(-0.3448278975 0 -0.15385545)
(-0.4136785349 0 -0.1682775001)
(-0.4591794151 0 -0.1625938899)
(-0.4306635248 0 -0.1501717085)
(-0.2926679582 0 0.06580885896)
(-0.2936151207 0 0.0759913591)
(-0.2841353847 0 0.07440855954)
(-0.3199405115 0 0.09196829769)
(-0.3389220104 0 0.1533182786)
(-0.3210042663 0 0.120494851)
(-0.3701940102 0 0.2937806296)
(-0.3871501728 0 0.3764976189)
(-0.4326808541 0 -0.3612608021)
(-0.4261640553 0 -0.3398195316)
(-0.4183230372 0 -0.3163329213)
(-0.4042027761 0 -0.2990436201)
(-0.438348041 0 0.4528893781)
(-0.4030130099 0 0.4039453836)
(-0.3920529617 0 0.4058086798)
(-0.3740454066 0 0.3668958313)
(-0.4317995159 0 -0.4316856049)
(-0.4408283017 0 -0.4246713607)
(-0.4402915251 0 -0.4097166409)
(-0.4478440423 0 -0.4145377344)
(-0.4510654057 0 -0.3991252144)
(-0.4405420006 0 -0.3787814272)
(-0.4064179543 0 0.3514465826)
(-0.3563620491 0 0.3195652)
(-0.3468541396 0 0.3258206861)
(-0.3002964672 0 0.2865844453)
(-0.2505577187 0 0.2607647961)
(-0.3846035309 0 -0.4379526696)
(-0.3991777657 0 -0.4433220587)
(-0.4116416904 0 -0.4409386919)
(-0.2181256321 0 0.3713396014)
(-0.211749074 0 0.3825307278)
(-0.3234595942 0 -0.4030929241)
(-0.336159327 0 -0.4150187296)
(-0.355349946 0 -0.4256491363)
(-0.2302478897 0 0.6068080587)
(-0.3171207092 0 -0.3224814042)
(-0.2627024917 0 -0.345416709)
(-0.2781575993 0 -0.3629801612)
(-0.2924949879 0 -0.3828970782)
(-0.3144651447 0 -0.4003478786)
(-0.2143866463 0 0.7711382327)
(-0.1954722472 0 -0.425844824)
(-0.3069721894 0 -0.4575186464)
(-0.2086219727 0 -0.3103901356)
(-0.2047637522 0 -0.2841357093)
(-0.2146595212 0 -0.2946112357)
(-0.2358334401 0 -0.3178055948)
(0.1746996103 0 -0.2610587249)
(-0.1799160152 0 -0.01529209689)
(-0.04843480861 0 -0.007736735214)
(-0.1787239166 0 -0.2560122099)
(-0.18711984 0 -0.2647517765)
(-0.2051672082 0 -0.037530454)
(-0.2232765304 0 -0.3003213232)
(-0.1943785947 0 -0.2704876711)
(-0.178280317 0 -0.2527542477)
(-0.4502474596 0 0.6623632154)
(-0.08805056789 0 0.5355206277)
(-0.02207679995 0 0.0510052362)
(-0.3754636289 0 -0.5893052967)
(-0.3592324868 0 -0.5351415655)
(-0.3132038887 0 -0.4437890386)
(-0.2409727033 0 -0.3273646157)
(-1.355270646 0 0.9158186138)
(-0.5727599425 0 1.297802677)
(-0.4052204359 0 0.9642547907)
(-0.3284269703 0 1.350948933)
(-0.3644703486 0 -0.7489878586)
(-0.3984372708 0 -0.7115631442)
(-0.01146561562 0 -0.06806016036)
(-0.1252467305 0 -0.4595525267)
(-0.1734406498 0 -0.6762986304)
(-0.1066565643 0 -0.3016727396)
(0.16423581 0 -0.4095519487)
(0.3060296655 0 0.09456276203)
(-0.1471742016 0 -0.7573976019)
(-0.1699620486 0 -0.9614869924)
(-0.202389123 0 -0.9639920617)
(0.1542689794 0 -0.2409029784)
(-0.05440669998 0 0.1453926517)
(0.115816272 0 0.1871243599)
(-0.1024630587 0 -0.4375438208)
(-0.1100991588 0 -0.4611891941)
(-0.1145745021 0 -0.6534193925)
(-0.01261657173 0 0.09734098213)
(-0.02142814326 0 0.1344382088)
(-0.0118951458 0 0.09112832279)
(-0.1047850603 0 -0.7218199511)
(-0.1185112497 0 -0.7659242167)
(-0.1171956078 0 -0.5681880026)
(-0.02146376344 0 0.2827733441)
(-0.02981952152 0 0.2965724218)
(-0.001125305252 0 0.1839379313)
(0.05983540718 0 -0.5297040504)
(0.07382665384 0 -0.5746894581)
(-0.08962760951 0 -1.288233751)
(0.01221654878 0 0.5682340301)
(0.0005103683937 0 0.5889033584)
(-0.05720141711 0 0.4549831974)
(0.05564371212 0 -0.2608305214)
(0.05872474377 0 -0.3550695391)
(0.1152606716 0 0.3641030565)
(0.06632047661 0 0.4553075531)
(0.05371669124 0 -0.3527038357)
(0.0542017599 0 -0.2049274264)
(0.1471377337 0 0.3376860485)
(0.1913192202 0 -0.5172339911)
(0.4535808699 0 -0.7199243834)
(0.6150924794 0 -0.8900607819)
(0.449359544 0 -0.7247699635)
(0.2401808059 0 0.4797490149)
(0.2264637165 0 0.450099875)
(0.1904367223 0 0.3962338041)
(0.6610898595 0 -0.9145837489)
(0.7640195093 0 -1.02643758)
(0.73058252 0 -1.005543615)
(0.3008029055 0 0.5469647394)
(0.2912171926 0 0.5342574053)
(0.2566108013 0 0.4914773652)
(0.7264126341 0 -0.9506143793)
(0.7760073528 0 -1.019730337)
(0.3456019136 0 0.6444146428)
(0.5488277282 0 -0.705656879)
(0.6199589407 0 -0.7732463485)
(0.8360491796 0 -1.033073108)
(0.3730902487 0 0.6346073817)
(0.3726923773 0 0.6482287044)
(0.3614170564 0 0.6605151195)
(0.4426407203 0 -0.5539421723)
(0.3802102002 0 -0.448201016)
(0.3973459813 0 -0.4454851935)
(0.5239672969 0 -0.6097588577)
(0.3498779546 0 0.5208012999)
(0.3474056849 0 0.5363128121)
(0.3662004715 0 0.5884859247)
(0.3869839184 0 -0.398382898)
(0.380288683 0 -0.4076604884)
(0.2834525172 0 0.3976367209)
(0.3195838009 0 0.4867591865)
(0.3805887313 0 -0.3377983733)
(0.3876622669 0 -0.3547718513)
(0.2966462244 0 0.2633540069)
(0.2788066109 0 0.3172377191)
(0.3072001888 0 -0.2314893901)
(0.3295160965 0 -0.261719331)
(0.2987755823 0 -0.2094175169)
(0.2898388188 0 -0.1850936086)
(0.3127132164 0 -0.2194464468)
(-0.8873250452 0 -0.7502577412)
(0.04807765762 0 0.2020118086)
(0.3397921134 0 0.2249381858)
(0.2931515424 0 0.1887477866)
(0.3067111597 0 0.2256530027)
(0.2804451582 0 -0.1657057169)
(0.292140325 0 -0.1464340088)
(0.3131576947 0 -0.1415687856)
(0.3076574322 0 -0.1494664937)
(0.5244507746 0 -0.1283937983)
(0.3772712121 0 -0.5999836959)
(-0.8527371488 0 -0.7785937731)
(0.3783443566 0 -0.1337397491)
(0.5594968059 0 -0.168952224)
(0.6757448747 0 -0.1875494288)
(0.6566161058 0 -0.1732698772)
(0.7726953281 0 -0.1869901544)
(0.8347579274 0 -0.1733310603)
(0.7841142617 0 -0.1600659832)
(0.9516450531 0 0.8337532735)
(0.9228710122 0 0.8425473165)
(0.7406649824 0 0.7096541828)
(0.8604450976 0 0.7889309837)
(0.7329396623 0 0.6300794281)
(0.4399240004 0 0.2891632412)
(0.1644535822 0 0.04502120472)
(0.8475216192 0 -0.1777924959)
(0.7833059973 0 -0.1603357856)
(0.5128307995 0 -0.1203720222)
(0.5204265788 0 -0.1205242681)
(0.4469612498 0 -0.1117662483)
(0.4833980551 0 -0.1005887284)
(0.4659951265 0 -0.09558871656)
(0.5315305533 0 -0.09667251443)
(0.5623205267 0 -0.1023553178)
(0.5453274808 0 -0.1031935103)
(0.559123787 0 -0.0447929304)
(0.4437937821 0 -0.02473238658)
(0.4571951562 0 -0.024951311)
(0.6990810788 0 0.00313924878)
(0.4949200558 0 0.05382828327)
(0.5172284987 0 0.06901076149)
(0.4201721774 0 0.09115838044)
(1.781406964 0 0.8205956709)
(1.481162467 0 1.064935021)
(-0.4938769153 0 -0.1508154646)
(-0.5133792729 0 -0.1324672847)
(-0.5057264115 0 -0.1252866996)
(-0.5253119954 0 -0.1095963582)
(-0.537026914 0 -0.08444377883)
(-0.5078294518 0 -0.07849396512)
(-0.5541216588 0 -0.05557248231)
(-0.8157131266 0 0.1503503276)
(-0.813668944 0 0.1540890432)
(-0.6933379639 0 0.1912423337)
(-0.5638881753 0 0.1846285283)
(-0.6080500066 0 0.1980926825)
(-0.5273695186 0 0.2049608993)