/*--------------------------------*- C++ -*----------------------------------*\
| =========                 |                                                 |
| \\      /  F ield         | OpenFOAM: The Open Source CFD Toolbox           |
|  \\    /   O peration     | Version:  2.1.x                                 |
|   \\  /    A nd           | Web:      www.OpenFOAM.org                      |
|    \\/     M anipulation  |                                                 |
\*---------------------------------------------------------------------------*/
FoamFile
{
    version     2.0;
    format      ascii;
    class       scalarField;
    location    "1.3";
    object      age;
}
// * * * * * * * * * * * * * * * * * * * * * * * * * * * * * * * * * * * * * //


28
(
0.005614042932
0.005229122633
0.00501213878
0.004812711836
0.004619824331
0.004420551247
0.004213917858
0.004011447982
0.00381108024
0.003616915017
0.003419364696
0.003229819647
0.003021871051
0.002828615406
0.002619149882
0.00242189053
0.002218372837
0.002018195179
0.001816211437
0.001615897521
0.001409647554
0.001207727679
0.001014451916
0.0008232811585
0.0006088710829
0.0004076069581
0.0002341920335
1.835113578e-05
)


// ************************************************************************* //
