/*--------------------------------*- C++ -*----------------------------------*\
| =========                 |                                                 |
| \\      /  F ield         | OpenFOAM: The Open Source CFD Toolbox           |
|  \\    /   O peration     | Version:  2.1.x                                 |
|   \\  /    A nd           | Web:      www.OpenFOAM.org                      |
|    \\/     M anipulation  |                                                 |
\*---------------------------------------------------------------------------*/
FoamFile
{
    version     2.0;
    format      ascii;
    class       scalarField;
    location    "1.3";
    object      d;
}
// * * * * * * * * * * * * * * * * * * * * * * * * * * * * * * * * * * * * * //


28
(
0.0005387307288
0.000509696026
0.0006666053916
0.0005068366066
0.0005419075757
0.0007769972472
0.0005073757071
0.0005001454441
0.0007812472744
0.0006127026548
0.0005340159054
0.0005133924184
0.0005233591712
0.0005467984317
0.0005004245341
0.0005020039459
0.0005004574457
0.0005499515019
0.0005089777937
0.000567784883
0.0005526486091
0.0005389017267
0.0005707124333
0.000538511023
0.0005199973127
0.001173985041
0.0005027205592
0.0005340357175
)


// ************************************************************************* //
