/*--------------------------------*- C++ -*----------------------------------*\
| =========                 |                                                 |
| \\      /  F ield         | OpenFOAM: The Open Source CFD Toolbox           |
|  \\    /   O peration     | Version:  2.1.x                                 |
|   \\  /    A nd           | Web:      www.OpenFOAM.org                      |
|    \\/     M anipulation  |                                                 |
\*---------------------------------------------------------------------------*/
FoamFile
{
    version     2.0;
    format      ascii;
    class       scalarField;
    location    "1.3";
    object      mass0;
}
// * * * * * * * * * * * * * * * * * * * * * * * * * * * * * * * * * * * * * //


28
(
8.186794077e-08
6.933178231e-08
1.550976038e-07
6.817145227e-08
8.332480181e-08
2.45616231e-07
6.838921692e-08
6.550697934e-08
2.496687391e-07
1.204336666e-07
7.97372401e-08
7.08511616e-08
7.5058199e-08
8.560130847e-08
6.561670271e-08
6.623995289e-08
6.562964985e-08
8.709070367e-08
6.903910088e-08
9.584072685e-08
8.837834537e-08
8.19459223e-08
9.733087423e-08
8.176781917e-08
7.362103523e-08
8.472007112e-07
6.652403166e-08
7.974611525e-08
)


// ************************************************************************* //
