/*--------------------------------*- C++ -*----------------------------------*\
| =========                 |                                                 |
| \\      /  F ield         | OpenFOAM: The Open Source CFD Toolbox           |
|  \\    /   O peration     | Version:  2.1.x                                 |
|   \\  /    A nd           | Web:      www.OpenFOAM.org                      |
|    \\/     M anipulation  |                                                 |
\*---------------------------------------------------------------------------*/
FoamFile
{
    version     2.0;
    format      ascii;
    class       scalarField;
    location    "1.3";
    object      nParticle;
}
// * * * * * * * * * * * * * * * * * * * * * * * * * * * * * * * * * * * * * //


28
(
1.639686886
1.896325768
0.9775209037
2.03497592
1.538618088
0.5891867782
2.100394438
2.040506598
0.578094167
1.139947486
1.724354655
1.860776723
1.925218659
1.573271963
2.219014594
2.068088758
2.147870693
1.607125808
1.941683444
1.521206702
1.626529831
1.70540584
1.276015866
1.756352522
1.875995822
0.1760821204
1.807590523
1.730529166
)


// ************************************************************************* //
