/*--------------------------------*- C++ -*----------------------------------*\
| =========                 |                                                 |
| \\      /  F ield         | OpenFOAM: The Open Source CFD Toolbox           |
|  \\    /   O peration     | Version:  2.1.x                                 |
|   \\  /    A nd           | Web:      www.OpenFOAM.org                      |
|    \\/     M anipulation  |                                                 |
\*---------------------------------------------------------------------------*/
FoamFile
{
    version     2.0;
    format      ascii;
    class       Cloud<basicReactingParcel>;
    location    "1.3";
    object      positions;
}
// * * * * * * * * * * * * * * * * * * * * * * * * * * * * * * * * * * * * * //

28
(
(0.004194731673 0.001828802921 0.01565192338) 101421
(0.01775520459 0.001419963704 0.01409053611) 91537
(0.01257898514 0.0009859365361 0.01248649231) 81693
(0.01286199863 0.001896660362 0.01512676203) 101487
(0.01243748378 0.002203185377 0.012620105) 86975
(0.01105428799 0.003323144657 0.008880199936) 63124
(0.01564406296 0.003831489371 0.01213559632) 82695
(0.01606003914 0.004703639345 0.01421516313) 97595
(0.01413325881 0.004733524806 0.01359222914) 92675
(0.01263600469 0.006122859066 0.008075166049) 59496
(0.01120560558 0.005867707368 0.01287779734) 88145
(0.008872795819 0.00712025094 0.01145832817) 78721
(0.01668437063 0.008087748916 0.01130599789) 79174
(0.01478184826 0.007970372037 0.01111665066) 78962
(0.01574374833 0.008876216852 0.01257717687) 89159
(0.01198986869 0.00918055286 0.01011778632) 74432
(0.01184647823 0.009407241335 0.01287944044) 89132
(0.009412571368 0.0108252984 0.0120766906) 84603
(0.01287660704 0.01058296818 0.01276433587) 89531
(0.01418042083 0.0117237546 0.01402166148) 94639
(0.01191291893 0.01265581025 0.009991218129) 7043
(0.01208458922 0.01243270771 0.01205569767) 85017
(0.01196102557 0.01322817306 0.01137246368) 80316
(0.0124195838 0.01353649198 0.01237784349) 85411
(0.0124654902 0.01417504798 0.01248059117) 85413
(0.01288665982 0.01487905328 0.0128000115) 90511
(0.0127500223 0.01534497743 0.01245816558) 85809
(0.01250579917 0.01594904084 0.01252000926) 90707
)


// ************************************************************************* //
