/*--------------------------------*- C++ -*----------------------------------*\
| =========                 |                                                 |
| \\      /  F ield         | OpenFOAM: The Open Source CFD Toolbox           |
|  \\    /   O peration     | Version:  2.1.x                                 |
|   \\  /    A nd           | Web:      www.OpenFOAM.org                      |
|    \\/     M anipulation  |                                                 |
\*---------------------------------------------------------------------------*/
FoamFile
{
    version     2.0;
    format      ascii;
    class       vectorField;
    location    "1.3";
    object      U;
}
// * * * * * * * * * * * * * * * * * * * * * * * * * * * * * * * * * * * * * //


28
(
(-1.457565886 -2.514508227 0.5531592491)
(0.990004421 -2.772268395 0.2996339628)
(0.01560618225 -2.991125998 -0.002668899978)
(0.07417500756 -2.913413396 0.5382343381)
(-0.01336881307 -2.973045163 0.02568391381)
(-0.3248033789 -2.869790209 -0.8132486182)
(0.7370602052 -2.873329472 -0.08542686709)
(0.8769944754 -2.802480778 0.4225202402)
(0.4260410841 -2.95765005 0.2849116652)
(0.03730455301 -2.726979336 -1.213682087)
(-0.3750799619 -2.952877917 0.1094752967)
(-1.112735729 -2.739975355 -0.3195589237)
(1.373135067 -2.611347487 -0.3918214508)
(0.8007832434 -2.831826529 -0.4854674136)
(1.228879318 -2.71173022 0.0292381055)
(-0.2091299512 -2.807608576 -0.9765960577)
(-0.2926569895 -2.96330174 0.1699191986)
(-1.521821118 -2.560642905 -0.2086529782)
(0.2062658445 -2.975883019 0.1447754746)
(1.035772237 -2.643801892 0.9379166694)
(-0.41495879 -2.370744447 -1.773249291)
(-0.3428450983 -2.950166931 -0.3666897546)
(-0.5299611023 -2.730552126 -1.108680408)
(-0.09745966075 -2.989765887 -0.1480464405)
(-0.0565789908 -2.995104991 -0.03182087172)
(0.9482623983 -2.751163159 0.7357620391)
(1.066803703 -2.796114395 -0.1785005469)
(0.3159852568 -2.776815819 1.090265294)
)


// ************************************************************************* //
