/*--------------------------------*- C++ -*----------------------------------*\
| =========                 |                                                 |
| \\      /  F ield         | OpenFOAM: The Open Source CFD Toolbox           |
|  \\    /   O peration     | Version:  2.1.x                                 |
|   \\  /    A nd           | Web:      www.OpenFOAM.org                      |
|    \\/     M anipulation  |                                                 |
\*---------------------------------------------------------------------------*/
FoamFile
{
    version     2.0;
    format      ascii;
    class       scalarField;
    location    "0.1";
    object      age;
}
// * * * * * * * * * * * * * * * * * * * * * * * * * * * * * * * * * * * * * //


29
(
0.006013312975
0.005409139053
0.00520933093
0.005047735478
0.004813115863
0.0046193978
0.00442801751
0.004224221507
0.004009438198
0.003841156399
0.003624040309
0.003433133828
0.003224422636
0.003019213155
0.002823452716
0.002608321508
0.002413743507
0.002219476846
0.002006188706
0.001810893046
0.001634657075
0.001405891904
0.001213313572
0.001016745155
0.0008180124803
0.0006199200563
0.0004216537786
0.0002179301262
7.945369185e-06
)


// ************************************************************************* //
