/*--------------------------------*- C++ -*----------------------------------*\
| =========                 |                                                 |
| \\      /  F ield         | OpenFOAM: The Open Source CFD Toolbox           |
|  \\    /   O peration     | Version:  2.1.x                                 |
|   \\  /    A nd           | Web:      www.OpenFOAM.org                      |
|    \\/     M anipulation  |                                                 |
\*---------------------------------------------------------------------------*/
FoamFile
{
    version     2.0;
    format      ascii;
    class       scalarField;
    location    "0.1";
    object      d;
}
// * * * * * * * * * * * * * * * * * * * * * * * * * * * * * * * * * * * * * //


29
(
0.0005016425919
0.0005001175023
0.00056682834
0.0008469530878
0.0008609834588
0.0005046614701
0.0005000424926
0.0005441355576
0.0005260469249
0.0005721981758
0.0005260339848
0.0006719712956
0.0005011676096
0.000500684226
0.0005234424851
0.0005004796895
0.0007400283662
0.0005351989439
0.0005211162861
0.0005676039631
0.0006259946581
0.0005146315129
0.0005232114004
0.0006853063256
0.0005599222884
0.0005000308113
0.00072794016
0.0007292151525
0.0006686127147
)


// ************************************************************************* //
