/*--------------------------------*- C++ -*----------------------------------*\
| =========                 |                                                 |
| \\      /  F ield         | OpenFOAM: The Open Source CFD Toolbox           |
|  \\    /   O peration     | Version:  2.1.x                                 |
|   \\  /    A nd           | Web:      www.OpenFOAM.org                      |
|    \\/     M anipulation  |                                                 |
\*---------------------------------------------------------------------------*/
FoamFile
{
    version     2.0;
    format      ascii;
    class       scalarField;
    location    "0.1";
    object      mass0;
}
// * * * * * * * * * * * * * * * * * * * * * * * * * * * * * * * * * * * * * //


29
(
6.609701269e-08
6.549600082e-08
9.535715593e-08
3.181095369e-07
3.341819939e-07
6.729752118e-08
6.546653517e-08
8.435676999e-08
7.622055047e-08
9.809300276e-08
7.621492581e-08
1.588732529e-07
6.590943774e-08
6.571890975e-08
7.509405038e-08
6.563840135e-08
2.121991908e-07
8.026835554e-08
7.409733028e-08
9.57491395e-08
1.284430187e-07
7.136540766e-08
7.499463874e-08
1.685205407e-07
9.191404701e-08
6.546194725e-08
2.019694401e-07
2.030325529e-07
1.565029455e-07
)


// ************************************************************************* //
