/*--------------------------------*- C++ -*----------------------------------*\
| =========                 |                                                 |
| \\      /  F ield         | OpenFOAM: The Open Source CFD Toolbox           |
|  \\    /   O peration     | Version:  2.1.x                                 |
|   \\  /    A nd           | Web:      www.OpenFOAM.org                      |
|    \\/     M anipulation  |                                                 |
\*---------------------------------------------------------------------------*/
FoamFile
{
    version     2.0;
    format      ascii;
    class       scalarField;
    location    "0.1";
    object      nParticle;
}
// * * * * * * * * * * * * * * * * * * * * * * * * * * * * * * * * * * * * * //


29
(
1.806008001
2.393706705
1.455391969
0.3680426464
0.4843806753
1.714799842
2.289583669
1.669607174
1.839972279
1.271623503
1.859680185
0.8930724578
2.218045995
1.97830459
1.867274322
2.178657958
0.646964042
1.827936136
1.815605347
1.472598171
0.9949666621
2.103825257
1.870180695
0.7779036423
1.440148053
2.228949186
0.7198362062
0.6325169613
0.8596357779
)


// ************************************************************************* //
