/*--------------------------------*- C++ -*----------------------------------*\
| =========                 |                                                 |
| \\      /  F ield         | OpenFOAM: The Open Source CFD Toolbox           |
|  \\    /   O peration     | Version:  2.1.x                                 |
|   \\  /    A nd           | Web:      www.OpenFOAM.org                      |
|    \\/     M anipulation  |                                                 |
\*---------------------------------------------------------------------------*/
FoamFile
{
    version     2.0;
    format      ascii;
    class       Cloud<basicReactingParcel>;
    location    "0.1";
    object      positions;
}
// * * * * * * * * * * * * * * * * * * * * * * * * * * * * * * * * * * * * * //

29
(
(0.02271259431 0.001335480916 0.01243725663) 81779
(0.01544755818 0.0002586073809 0.01425683589) 96021
(0.01749435119 0.001267924657 0.01252990588) 86627
(0.006551565972 0.002123377167 0.01379320523) 91830
(0.01304888959 0.002667145289 0.006952495567) 53851
(0.01235703975 0.002521801584 0.009655814842) 67575
(0.01294236345 0.002853035055 0.01131565937) 77384
(0.008726932705 0.004893988196 0.007866967573) 59094
(0.009139690282 0.005799973149 0.01777424558) 116678
(0.01188706301 0.004708119485 0.01047657431) 73064
(0.01464225344 0.005503727486 0.01092769553) 78372
(0.01249911466 0.005858169435 0.01076617315) 73457
(0.01061328742 0.007263886909 0.01608175482) 107956
(0.01495775735 0.007748283314 0.01518403862) 103462
(0.01179030059 0.007596047536 0.01290823959) 9079
(0.0118660056 0.008716937417 0.009790827591) 69534
(0.01351329349 0.009144803938 0.01040548953) 74450
(0.0111213574 0.009994588615 0.01002236265) 74621
(0.01143243279 0.01013202775 0.01180572543) 84422
(0.01112733263 0.01075283398 0.01242200298) 84621
(0.01334295746 0.01191490243 0.01506746867) 11491
(0.01288123833 0.01180659634 0.01249940923) 85025
(0.01165806386 0.01262491917 0.013553609) 95004
(0.01252531695 0.01296130095 0.01224426767) 85221
(0.01292399663 0.0137695714 0.01157368136) 80518
(0.01225792114 0.0144424073 0.0115163907) 80707
(0.01256954442 0.01475191269 0.01230646084) 85615
(0.01254162097 0.01535364104 0.01258897311) 9380
(0.01249785209 0.01597789856 0.01249133562) 85805
)


// ************************************************************************* //
