/*--------------------------------*- C++ -*----------------------------------*\
| =========                 |                                                 |
| \\      /  F ield         | OpenFOAM: The Open Source CFD Toolbox           |
|  \\    /   O peration     | Version:  2.1.x                                 |
|   \\  /    A nd           | Web:      www.OpenFOAM.org                      |
|    \\/     M anipulation  |                                                 |
\*---------------------------------------------------------------------------*/
FoamFile
{
    version     2.0;
    format      ascii;
    class       vectorField;
    location    "0.1";
    object      U;
}
// * * * * * * * * * * * * * * * * * * * * * * * * * * * * * * * * * * * * * //


29
(
(1.66860492 -2.425396173 -0.01025144948)
(0.5362809413 -2.890479532 0.3196400375)
(0.9465304768 -2.817556187 0.005667768569)
(-1.170303196 -2.754896776 0.2544269984)
(0.1133072184 -2.775945425 -1.145170729)
(-0.03053342135 -2.901312677 -0.6074604808)
(0.09860045197 -2.952100847 -0.2639832032)
(-0.883397109 -2.621004191 -1.084742766)
(-0.8289226378 -2.535828653 1.301053154)
(-0.1580889928 -2.931277721 -0.5218828926)
(0.5852616157 -2.885378635 -0.4295520957)
(-0.0002561847858 -2.951568359 -0.5017057852)
(-0.579584171 -2.69952274 1.100288625)
(0.8067965124 -2.723604446 0.8810768064)
(-0.2493969764 -2.967154977 0.1434603409)
(-0.2411923909 -2.783571499 -1.030658585)
(0.4181084838 -2.840532882 -0.8642437834)
(-0.6174587693 -2.700626156 -1.109670417)
(-0.5291547516 -2.918456346 -0.3441269851)
(-0.7546182432 -2.893571644 -0.04287853914)
(0.5138746349 -2.498413919 1.565152557)
(0.270080797 -2.977717352 -0.0004185172965)
(-0.6915570278 -2.778296228 0.8654227744)
(0.02485211536 -2.987987215 -0.2510369625)
(0.5172397874 -2.725048179 -1.13002987)
(-0.3897619564 -2.510962839 -1.583671885)
(0.1648084991 -2.959924792 -0.4586550118)
(0.1909061222 -2.965870235 0.4080997878)
(-0.2703274535 -2.781670101 -1.090466731)
)


// ************************************************************************* //
