/*--------------------------------*- C++ -*----------------------------------*\
| =========                 |                                                 |
| \\      /  F ield         | OpenFOAM: The Open Source CFD Toolbox           |
|  \\    /   O peration     | Version:  2.1.x                                 |
|   \\  /    A nd           | Web:      www.OpenFOAM.org                      |
|    \\/     M anipulation  |                                                 |
\*---------------------------------------------------------------------------*/
FoamFile
{
    version     2.0;
    format      ascii;
    class       scalarField;
    location    "2.3";
    object      age;
}
// * * * * * * * * * * * * * * * * * * * * * * * * * * * * * * * * * * * * * //


29
(
0.006200213014
0.006000563787
0.005400656577
0.005200648007
0.00500047365
0.004800271605
0.004600166923
0.004400271895
0.004200212571
0.004000136444
0.003800129499
0.003600316066
0.003400367464
0.003200405248
0.003000138216
0.002800485312
0.002600359105
0.002400275586
0.002200335892
0.002000280958
0.001800221931
0.001600262029
0.001400168465
0.001200367886
0.001000320724
0.0008001457133
0.0006002484483
0.000400143063
0.0002002685818
)


// ************************************************************************* //
