/*--------------------------------*- C++ -*----------------------------------*\
| =========                 |                                                 |
| \\      /  F ield         | OpenFOAM: The Open Source CFD Toolbox           |
|  \\    /   O peration     | Version:  2.1.x                                 |
|   \\  /    A nd           | Web:      www.OpenFOAM.org                      |
|    \\/     M anipulation  |                                                 |
\*---------------------------------------------------------------------------*/
FoamFile
{
    version     2.0;
    format      ascii;
    class       scalarField;
    location    "2.3";
    object      d;
}
// * * * * * * * * * * * * * * * * * * * * * * * * * * * * * * * * * * * * * //


29
(
0.0005116199854
0.000503241475
0.0006193991207
0.0005000861948
0.000541197144
0.0005103571656
0.000631958296
0.0005315847905
0.0007788700473
0.0005005990084
0.0005554811487
0.0005054512165
0.0005282919836
0.0005104497555
0.0005002102781
0.0005697719621
0.0005155454473
0.0005138175975
0.0005002387966
0.0006875575426
0.0005517965171
0.0006129184316
0.0006463713698
0.0005033722234
0.0005738490993
0.0005002047842
0.0007094723586
0.0008357340439
0.0005521557249
)


// ************************************************************************* //
