/*--------------------------------*- C++ -*----------------------------------*\
| =========                 |                                                 |
| \\      /  F ield         | OpenFOAM: The Open Source CFD Toolbox           |
|  \\    /   O peration     | Version:  2.1.x                                 |
|   \\  /    A nd           | Web:      www.OpenFOAM.org                      |
|    \\/     M anipulation  |                                                 |
\*---------------------------------------------------------------------------*/
FoamFile
{
    version     2.0;
    format      ascii;
    class       scalarField;
    location    "2.3";
    object      mass0;
}
// * * * * * * * * * * * * * * * * * * * * * * * * * * * * * * * * * * * * * //


29
(
7.011987372e-08
6.673104134e-08
1.244257811e-07
6.548370139e-08
8.299751904e-08
6.960192845e-08
1.321489998e-07
7.865317564e-08
2.47396545e-07
6.568535892e-08
8.97442427e-08
6.761395819e-08
7.720060154e-08
6.963981723e-08
6.55324577e-08
9.685049505e-08
7.174629689e-08
7.102733907e-08
6.554366693e-08
1.701867616e-07
8.797018128e-08
1.205609515e-07
1.413985504e-07
6.678306751e-08
9.894451758e-08
6.553029847e-08
1.869842651e-07
3.056348712e-07
8.814209334e-08
)


// ************************************************************************* //
