/*--------------------------------*- C++ -*----------------------------------*\
| =========                 |                                                 |
| \\      /  F ield         | OpenFOAM: The Open Source CFD Toolbox           |
|  \\    /   O peration     | Version:  2.1.x                                 |
|   \\  /    A nd           | Web:      www.OpenFOAM.org                      |
|    \\/     M anipulation  |                                                 |
\*---------------------------------------------------------------------------*/
FoamFile
{
    version     2.0;
    format      ascii;
    class       scalarField;
    location    "2.3";
    object      nParticle;
}
// * * * * * * * * * * * * * * * * * * * * * * * * * * * * * * * * * * * * * //


29
(
1.980563611
2.077590695
1.114481197
2.121010788
1.67483638
1.997458921
1.051539403
1.764896838
0.5615649315
2.115255732
1.547660679
2.052234472
1.798612172
1.994027112
2.122242541
1.431583441
1.93708318
1.956278073
2.118429429
0.8163379931
1.579320186
1.151819106
0.9827366059
2.077686985
1.404077506
2.121381957
0.7424257384
0.4546820859
1.574806826
)


// ************************************************************************* //
