/*--------------------------------*- C++ -*----------------------------------*\
| =========                 |                                                 |
| \\      /  F ield         | OpenFOAM: The Open Source CFD Toolbox           |
|  \\    /   O peration     | Version:  2.1.x                                 |
|   \\  /    A nd           | Web:      www.OpenFOAM.org                      |
|    \\/     M anipulation  |                                                 |
\*---------------------------------------------------------------------------*/
FoamFile
{
    version     2.0;
    format      ascii;
    class       Cloud<basicReactingParcel>;
    location    "2.3";
    object      positions;
}
// * * * * * * * * * * * * * * * * * * * * * * * * * * * * * * * * * * * * * //

29
(
(0.01868783627 0.0009697699333 0.02118350532) 15687
(0.02271799105 0.001898832728 0.008678786564) 62672
(0.008628471506 0.0005568428702 0.009784398521) 66762
(0.01965048932 0.002398962755 0.01061876044) 72344
(0.01339636463 0.002471959108 0.006279156471) 49418
(0.008712642958 0.004212565852 0.01965037829) 124827
(0.01042831812 0.003169878902 0.007964817943) 58566
(0.01409851125 0.003267607908 0.01531293549) 102081
(0.01472686111 0.003655147686 0.01127472047) 77788
(0.009595655606 0.005304581691 0.01691600752) 111953
(0.006980032529 0.00711226533 0.01689202811) 112477
(0.01242543282 0.005249151799 0.01264590772) 87957
(0.0127680624 0.005841935378 0.01229008001) 83263
(0.01109956669 0.007890320865 0.01735741909) 112698
(0.01440576092 0.007393927067 0.01412714591) 93663
(0.01373000865 0.00770901386 0.01239525115) 83858
(0.01257814511 0.009030086561 0.009058191745) 64774
(0.01178499223 0.00950826719 0.01547713898) 104030
(0.009319214238 0.01024129797 0.01243331052) 84605
(0.01300968509 0.01004461661 0.01199844423) 84436
(0.01555160877 0.01164073587 0.01164947813) 79953
(0.01219653444 0.01121522116 0.01264347431) 89719
(0.01450295471 0.01234205791 0.012971662) 89941
(0.01166318748 0.01250762157 0.01232783707) 85020
(0.01118555543 0.01334548798 0.01296295276) 90109
(0.01260692227 0.01360450865 0.01251372364) 9320
(0.01265673617 0.01431803398 0.01312304425) 90513
(0.01251156817 0.01479951126 0.01250182257) 90511
(0.01248059438 0.01542140679 0.01233974912) 85803
)


// ************************************************************************* //
