/*--------------------------------*- C++ -*----------------------------------*\
| =========                 |                                                 |
| \\      /  F ield         | OpenFOAM: The Open Source CFD Toolbox           |
|  \\    /   O peration     | Version:  2.1.x                                 |
|   \\  /    A nd           | Web:      www.OpenFOAM.org                      |
|    \\/     M anipulation  |                                                 |
\*---------------------------------------------------------------------------*/
FoamFile
{
    version     2.0;
    format      ascii;
    class       vectorField;
    location    "2.3";
    object      U;
}
// * * * * * * * * * * * * * * * * * * * * * * * * * * * * * * * * * * * * * //


29
(
(0.9805772984 -2.412020131 1.376062296)
(1.673354347 -2.338515327 -0.6257829044)
(-0.7085866386 -2.852843858 -0.4970230561)
(1.354054358 -2.600916535 -0.3562414409)
(0.1769236861 -2.694547561 -1.227864792)
(-0.7782531699 -2.445579254 1.469310791)
(-0.4460446609 -2.784864251 -0.9764499881)
(0.3590004655 -2.880970306 0.6317410335)
(0.5267568286 -2.940670759 -0.2898359299)
(-0.7175767499 -2.662041678 1.091063556)
(-1.438727598 -2.33506503 1.144740812)
(-0.02049625267 -2.972661296 0.04010560065)
(0.07810859868 -2.976488794 -0.06116693769)
(-0.4335986441 -2.526532374 1.503941899)
(0.6296382802 -2.857990179 0.5375875531)
(0.4362329841 -2.954159506 -0.03715006509)
(0.02983242985 -2.673522639 -1.313933799)
(-0.2958690392 -2.698003125 1.231935221)
(-1.436255728 -2.611049556 -0.03011304796)
(0.2538672968 -2.97608596 -0.2498181886)
(1.687372216 -2.419241811 -0.4702919259)
(-0.1889732036 -2.987396352 0.08934391162)
(1.426468616 -2.611976 0.3359092597)
(-0.6946911766 -2.905120544 -0.1429233745)
(-1.310864093 -2.652179678 0.461691699)
(0.1333136688 -2.990683979 0.01711101213)
(0.2608424738 -2.802091912 1.036878712)
(0.02889400083 -3.000440824 0.004552254718)
(-0.09684851131 -2.888593466 -0.7997712471)
)


// ************************************************************************* //
