/*--------------------------------*- C++ -*----------------------------------*\
| =========                 |                                                 |
| \\      /  F ield         | OpenFOAM: The Open Source CFD Toolbox           |
|  \\    /   O peration     | Version:  2.1.x                                 |
|   \\  /    A nd           | Web:      www.OpenFOAM.org                      |
|    \\/     M anipulation  |                                                 |
\*---------------------------------------------------------------------------*/
FoamFile
{
    version     2.0;
    format      ascii;
    class       scalarField;
    location    "2.1";
    object      age;
}
// * * * * * * * * * * * * * * * * * * * * * * * * * * * * * * * * * * * * * //


28
(
0.005807201343
0.00520203445
0.005003033715
0.004803381368
0.004608139122
0.004404209333
0.004203739529
0.004008628333
0.00380373792
0.003604203014
0.003402411495
0.003208552061
0.003005068792
0.002804452185
0.002602522731
0.002407424089
0.002208293306
0.002006928113
0.00180324153
0.001605876607
0.001408728513
0.001207226829
0.001004937395
0.0008080223415
0.0006094922761
0.0004055046912
0.0002059140621
8.079381785e-06
)


// ************************************************************************* //
