/*--------------------------------*- C++ -*----------------------------------*\
| =========                 |                                                 |
| \\      /  F ield         | OpenFOAM: The Open Source CFD Toolbox           |
|  \\    /   O peration     | Version:  2.1.x                                 |
|   \\  /    A nd           | Web:      www.OpenFOAM.org                      |
|    \\/     M anipulation  |                                                 |
\*---------------------------------------------------------------------------*/
FoamFile
{
    version     2.0;
    format      ascii;
    class       scalarField;
    location    "2.1";
    object      d;
}
// * * * * * * * * * * * * * * * * * * * * * * * * * * * * * * * * * * * * * //


28
(
0.0006343175937
0.000516895279
0.001104029269
0.0005025284135
0.0005032589958
0.000533045236
0.0005117115388
0.0005179882242
0.0005230469468
0.0005906425746
0.0008779881882
0.0005094782459
0.0005251606969
0.0005342679283
0.0005970054045
0.000677346911
0.0005039448772
0.0005610923782
0.0005000491792
0.0005027613554
0.000513301552
0.00050575701
0.0005012643791
0.0005036131373
0.0005094662043
0.0005118339818
0.0005197775509
0.0005930227025
)


// ************************************************************************* //
