/*--------------------------------*- C++ -*----------------------------------*\
| =========                 |                                                 |
| \\      /  F ield         | OpenFOAM: The Open Source CFD Toolbox           |
|  \\    /   O peration     | Version:  2.1.x                                 |
|   \\  /    A nd           | Web:      www.OpenFOAM.org                      |
|    \\/     M anipulation  |                                                 |
\*---------------------------------------------------------------------------*/
FoamFile
{
    version     2.0;
    format      ascii;
    class       scalarField;
    location    "2.1";
    object      mass0;
}
// * * * * * * * * * * * * * * * * * * * * * * * * * * * * * * * * * * * * * //


28
(
1.336345927e-07
7.231132496e-08
7.045963418e-07
6.644778203e-08
6.673801147e-08
7.930321989e-08
7.015752391e-08
7.277098986e-08
7.492394499e-08
1.078879318e-07
3.543762778e-07
6.924294918e-08
7.58359742e-08
7.985018673e-08
1.114123693e-07
1.627166843e-07
6.701125115e-08
9.249148032e-08
6.546916148e-08
6.654022845e-08
7.081354798e-08
6.773674996e-08
6.594762409e-08
6.687900052e-08
6.923803961e-08
7.020789809e-08
7.35277333e-08
1.091974713e-07
)


// ************************************************************************* //
