/*--------------------------------*- C++ -*----------------------------------*\
| =========                 |                                                 |
| \\      /  F ield         | OpenFOAM: The Open Source CFD Toolbox           |
|  \\    /   O peration     | Version:  2.1.x                                 |
|   \\  /    A nd           | Web:      www.OpenFOAM.org                      |
|    \\/     M anipulation  |                                                 |
\*---------------------------------------------------------------------------*/
FoamFile
{
    version     2.0;
    format      ascii;
    class       scalarField;
    location    "2.1";
    object      nParticle;
}
// * * * * * * * * * * * * * * * * * * * * * * * * * * * * * * * * * * * * * //


28
(
1.026767813
1.959181557
0.1962466084
2.087719621
2.032797287
1.786867225
1.985432005
1.863052343
1.900237068
1.285225593
0.3956363485
1.94562921
1.864501975
1.745841145
1.259537513
0.8331819299
2.06495664
1.512971036
2.161737078
2.061079271
1.93491849
2.067572425
2.131542022
2.044855996
1.992756594
2.019102487
1.886286335
1.236046913
)


// ************************************************************************* //
