/*--------------------------------*- C++ -*----------------------------------*\
| =========                 |                                                 |
| \\      /  F ield         | OpenFOAM: The Open Source CFD Toolbox           |
|  \\    /   O peration     | Version:  2.1.x                                 |
|   \\  /    A nd           | Web:      www.OpenFOAM.org                      |
|    \\/     M anipulation  |                                                 |
\*---------------------------------------------------------------------------*/
FoamFile
{
    version     2.0;
    format      ascii;
    class       Cloud<basicReactingParcel>;
    location    "2.1";
    object      positions;
}
// * * * * * * * * * * * * * * * * * * * * * * * * * * * * * * * * * * * * * //

28
(
(0.02082589015 0.001005334585 0.009847787474) 67057
(0.005078646141 0.002396473727 0.01250131106) 86920
(0.01043244822 0.00262715567 0.01908247617) 120257
(0.0136201874 0.002938580155 0.01824299872) 115813
(0.01174262596 0.002309464595 0.01343335938) 91876
(0.01473559989 0.003096418004 0.01369915333) 92288
(0.01418859598 0.005406098892 0.006017217761) 3275
(0.01238339036 0.004030309098 0.01243853831) 82669
(0.01339520318 0.005522704939 0.008208411533) 59321
(0.009313484836 0.005966879794 0.01016767057) 73431
(0.01119779862 0.005928402106 0.01363004282) 93045
(0.009802560912 0.006993058345 0.01063730246) 73828
(0.009889140772 0.007475903697 0.01139472317) 78922
(0.01145249803 0.007684510389 0.01214492475) 83838
(0.0115194779 0.008495245467 0.01435908684) 98730
(0.01285038446 0.008795198548 0.01224421055) 84241
(0.01109702614 0.01020469535 0.01533744886) 11430
(0.01382816138 0.01019032799 0.01327631584) 89541
(0.01575016847 0.01169642864 0.01259463592) 89749
(0.01196719399 0.01122667116 0.01228818327) 84822
(0.01385293996 0.0125666613 0.0104585947) 75429
(0.01188618784 0.01285117885 0.01083312783) 7789
(0.01263724541 0.01301887516 0.01210087349) 85223
(0.01275334026 0.01360471991 0.01225030461) 85417
(0.01247651103 0.01417932226 0.01234856904) 85413
(0.01254994854 0.01478729536 0.012427014) 85615
(0.01270457281 0.01541727712 0.0124986666) 85809
(0.01250619924 0.01597806373 0.01250823741) 90707
)


// ************************************************************************* //
