/*--------------------------------*- C++ -*----------------------------------*\
| =========                 |                                                 |
| \\      /  F ield         | OpenFOAM: The Open Source CFD Toolbox           |
|  \\    /   O peration     | Version:  2.1.x                                 |
|   \\  /    A nd           | Web:      www.OpenFOAM.org                      |
|    \\/     M anipulation  |                                                 |
\*---------------------------------------------------------------------------*/
FoamFile
{
    version     2.0;
    format      ascii;
    class       vectorField;
    location    "2.1";
    object      U;
}
// * * * * * * * * * * * * * * * * * * * * * * * * * * * * * * * * * * * * * //


28
(
(1.416520797 -2.579483731 -0.4512327374)
(-1.405958471 -2.602557641 0.0002483763714)
(-0.4113308611 -2.684983708 1.309556363)
(0.2299538956 -2.70473124 1.178932135)
(-0.1621582246 -2.953738372 0.1998377197)
(0.5016397619 -2.916928811 0.2690745315)
(0.3969067072 -2.510662624 -1.523786495)
(-0.02876486697 -2.972247891 -0.01516115941)
(0.2328897892 -2.744309662 -1.116469592)
(-0.8767807502 -2.778296873 -0.6417485691)
(-0.3810407764 -2.963763512 0.3306649824)
(-0.8329916096 -2.797129974 -0.5752164822)
(-0.8616753889 -2.827974284 -0.3647802349)
(-0.370717546 -2.956650289 -0.1256633688)
(-0.3745325724 -2.879376738 0.7101202293)
(0.1448812551 -2.990947772 -0.1057669551)
(-0.6312325693 -2.61828753 1.27663828)
(0.6584805915 -2.890197443 0.384884639)
(1.792809664 -2.382732307 0.05220165977)
(-0.330222707 -2.966312935 -0.1312798554)
(0.9565471605 -2.434351972 -1.443301625)
(-0.5066596433 -2.605084618 -1.375888115)
(0.1361650994 -2.96262022 -0.3959848495)
(0.312785184 -2.961317425 -0.308285069)
(-0.03847033337 -2.984939508 -0.2480142169)
(0.1230310759 -2.989108541 -0.1797759338)
(0.9928943755 -2.829294652 -0.0064716655)
(0.7672670813 -2.715074285 1.019527318)
)


// ************************************************************************* //
