/*--------------------------------*- C++ -*----------------------------------*\
| =========                 |                                                 |
| \\      /  F ield         | OpenFOAM: The Open Source CFD Toolbox           |
|  \\    /   O peration     | Version:  2.1.x                                 |
|   \\  /    A nd           | Web:      www.OpenFOAM.org                      |
|    \\/     M anipulation  |                                                 |
\*---------------------------------------------------------------------------*/
FoamFile
{
    version     2.0;
    format      ascii;
    class       scalarField;
    location    "1.4";
    object      age;
}
// * * * * * * * * * * * * * * * * * * * * * * * * * * * * * * * * * * * * * //


27
(
0.005416013507
0.005026060235
0.004835025105
0.004629948132
0.004451863785
0.004212064042
0.004023926526
0.003835301321
0.003614769082
0.003443974687
0.003219536917
0.003018298977
0.002840868348
0.002653942809
0.002409520677
0.00223635183
0.002017899287
0.001850457501
0.001628768222
0.001424749045
0.001213147324
0.001022043766
0.0008118343185
0.000607280027
0.0004241868372
0.0002188011718
2.08855664e-05
)


// ************************************************************************* //
