/*--------------------------------*- C++ -*----------------------------------*\
| =========                 |                                                 |
| \\      /  F ield         | OpenFOAM: The Open Source CFD Toolbox           |
|  \\    /   O peration     | Version:  2.1.x                                 |
|   \\  /    A nd           | Web:      www.OpenFOAM.org                      |
|    \\/     M anipulation  |                                                 |
\*---------------------------------------------------------------------------*/
FoamFile
{
    version     2.0;
    format      ascii;
    class       scalarField;
    location    "1.4";
    object      d;
}
// * * * * * * * * * * * * * * * * * * * * * * * * * * * * * * * * * * * * * //


27
(
0.001059039018
0.000628953432
0.0005019722724
0.0007734505037
0.0005131906714
0.0005291212284
0.000526781246
0.0005257436973
0.000555738042
0.0005018245545
0.0005561371795
0.0005072667499
0.0005589756069
0.0005047544085
0.0005219446177
0.0006446612249
0.0005025119725
0.0005039171102
0.0007700265423
0.0005797529335
0.0005000023982
0.0005038480581
0.0005277193522
0.0005005438249
0.000505721828
0.0005047351847
0.0005758723274
)


// ************************************************************************* //
