/*--------------------------------*- C++ -*----------------------------------*\
| =========                 |                                                 |
| \\      /  F ield         | OpenFOAM: The Open Source CFD Toolbox           |
|  \\    /   O peration     | Version:  2.1.x                                 |
|   \\  /    A nd           | Web:      www.OpenFOAM.org                      |
|    \\/     M anipulation  |                                                 |
\*---------------------------------------------------------------------------*/
FoamFile
{
    version     2.0;
    format      ascii;
    class       scalarField;
    location    "1.4";
    object      mass0;
}
// * * * * * * * * * * * * * * * * * * * * * * * * * * * * * * * * * * * * * //


27
(
6.219199753e-07
1.302729045e-07
6.622741561e-08
2.422680826e-07
7.076766762e-08
7.756471121e-08
7.654019035e-08
7.608881971e-08
8.986881229e-08
6.616896558e-08
9.006258589e-08
6.834516733e-08
9.14486273e-08
6.733470855e-08
7.445123268e-08
1.402791964e-07
6.644126042e-08
6.700017495e-08
2.390648402e-07
1.02029906e-07
6.545078874e-08
6.697263548e-08
7.694983347e-08
6.566363884e-08
6.772261503e-08
6.73270154e-08
9.999476209e-08
)


// ************************************************************************* //
