/*--------------------------------*- C++ -*----------------------------------*\
| =========                 |                                                 |
| \\      /  F ield         | OpenFOAM: The Open Source CFD Toolbox           |
|  \\    /   O peration     | Version:  2.1.x                                 |
|   \\  /    A nd           | Web:      www.OpenFOAM.org                      |
|    \\/     M anipulation  |                                                 |
\*---------------------------------------------------------------------------*/
FoamFile
{
    version     2.0;
    format      ascii;
    class       scalarField;
    location    "1.4";
    object      nParticle;
}
// * * * * * * * * * * * * * * * * * * * * * * * * * * * * * * * * * * * * * //


27
(
0.2143059248
1.174683103
2.001516274
0.5898812114
1.747631422
2.029517238
1.839764872
1.6917328
1.634019376
1.909147708
1.718934407
1.858401668
1.515549739
1.938287295
2.037782789
0.8937707518
2.198441677
1.95587693
0.5728491903
1.38012783
2.466095329
1.93144442
1.839120032
2.130461548
1.842984472
2.143515952
1.28940317
)


// ************************************************************************* //
