/*--------------------------------*- C++ -*----------------------------------*\
| =========                 |                                                 |
| \\      /  F ield         | OpenFOAM: The Open Source CFD Toolbox           |
|  \\    /   O peration     | Version:  2.1.x                                 |
|   \\  /    A nd           | Web:      www.OpenFOAM.org                      |
|    \\/     M anipulation  |                                                 |
\*---------------------------------------------------------------------------*/
FoamFile
{
    version     2.0;
    format      ascii;
    class       Cloud<basicReactingParcel>;
    location    "1.4";
    object      positions;
}
// * * * * * * * * * * * * * * * * * * * * * * * * * * * * * * * * * * * * * //

27
(
(0.003959244928 0.003068102636 0.01746880991) 111360
(0.007015746331 0.002188941129 0.01477472619) 96736
(0.01007953895 0.0018664422 0.01396115318) 91670
(0.004808996431 0.004466345039 0.01313200344) 87700
(0.009735487548 0.003966915964 0.007619110169) 58739
(0.006977002048 0.005247560918 0.009061918621) 63635
(0.007340962036 0.005401635903 0.01019687188) 73409
(0.01070927774 0.0059396984 0.01766443069) 116692
(0.0109444092 0.006568231343 0.007469603968) 59480
(0.01701325478 0.007821826959 0.008219970714) 59897
(0.01637329899 0.007418496841 0.01450395697) 98574
(0.01065802472 0.007196993557 0.01319106895) 88535
(0.01057224899 0.007762556859 0.011668919) 83827
(0.01316193119 0.008179079225 0.01133508599) 79146
(0.01436990419 0.009092004908 0.01335903898) 94053
(0.0150437669 0.009843790372 0.01323291575) 89360
(0.01510296414 0.01058342799 0.01193374191) 84652
(0.01333161434 0.01120220999 0.01513433399) 104426
(0.01191969221 0.01115296226 0.01227723842) 84822
(0.01250318992 0.01173014827 0.01250291726) 89727
(0.01362149655 0.01260772049 0.01184003747) 8541
(0.01144878662 0.01326317457 0.01338241127) 95006
(0.01257131808 0.01357157423 0.01263828533) 9320
(0.01240610649 0.01440720709 0.01162397804) 80707
(0.0125187393 0.01474711662 0.01271832338) 90511
(0.01260376387 0.01539497762 0.01226803865) 85809
(0.0124782457 0.01594767979 0.01247325764) 85805
)


// ************************************************************************* //
