/*--------------------------------*- C++ -*----------------------------------*\
| =========                 |                                                 |
| \\      /  F ield         | OpenFOAM: The Open Source CFD Toolbox           |
|  \\    /   O peration     | Version:  2.1.x                                 |
|   \\  /    A nd           | Web:      www.OpenFOAM.org                      |
|    \\/     M anipulation  |                                                 |
\*---------------------------------------------------------------------------*/
FoamFile
{
    version     2.0;
    format      ascii;
    class       vectorField;
    location    "1.4";
    object      U;
}
// * * * * * * * * * * * * * * * * * * * * * * * * * * * * * * * * * * * * * //


27
(
(-1.568466392 -2.401500453 0.9124967621)
(-1.079632806 -2.743524981 0.4478036874)
(-0.4935353473 -2.90556527 0.2979311506)
(-1.649148238 -2.495875838 0.135517731)
(-0.6131502228 -2.690710321 -1.082548456)
(-1.296270418 -2.544332017 -0.8069318922)
(-1.268011837 -2.624689461 -0.5660733144)
(-0.4620017572 -2.614387299 1.332409892)
(-0.4264121973 -2.603186317 -1.37891162)
(1.297233314 -2.367574898 -1.230197906)
(1.193271704 -2.659614971 0.6173716932)
(-0.60493407 -2.905922403 0.2269580684)
(-0.6737312697 -2.89292711 -0.2904551766)
(0.247480057 -2.937146733 -0.4355331641)
(0.7708401675 -2.859621117 0.3541260324)
(1.132256972 -2.751257528 0.3262283855)
(1.282247969 -2.678256698 -0.2789447911)
(0.4469606746 -2.587802989 1.415853053)
(-0.3553646048 -2.976290991 -0.1364130949)
(0.00223125666 -2.993730243 0.002040536538)
(0.9210855549 -2.792136301 -0.5420274891)
(-1.025410993 -2.674765851 0.8607521796)
(0.08764884025 -2.988581386 0.1699505743)
(-0.154327264 -2.621059122 -1.439866068)
(0.04411980137 -2.951975799 0.5140204148)
(0.4739093066 -2.764420452 -1.059411523)
(-1.041507528 -2.505050939 -1.280315391)
)


// ************************************************************************* //
