/*--------------------------------*- C++ -*----------------------------------*\
| =========                 |                                                 |
| \\      /  F ield         | OpenFOAM: The Open Source CFD Toolbox           |
|  \\    /   O peration     | Version:  2.1.x                                 |
|   \\  /    A nd           | Web:      www.OpenFOAM.org                      |
|    \\/     M anipulation  |                                                 |
\*---------------------------------------------------------------------------*/
FoamFile
{
    version     2.0;
    format      ascii;
    class       surfaceScalarField;
    location    "1.9";
    object      phi;
}
// * * * * * * * * * * * * * * * * * * * * * * * * * * * * * * * * * * * * * //

dimensions      [1 1 -1 0 0 0 0];

internalField   nonuniform List<scalar> 
5536
(
7.175090273e-10
4.050752066e-09
-9.609223868e-10
9.446676124e-10
4.564694988e-09
-8.827117029e-10
9.82801753e-10
6.063200651e-09
-9.990343946e-10
9.865362805e-10
6.950267999e-09
-6.570785557e-10
8.322336705e-10
9.898248497e-09
1.275059509e-06
7.230182299e-07
-7.159085909e-07
1.178787333e-06
6.825962501e-07
-2.985919628e-11
-2.765371014e-07
1.673513025e-07
1.12632517e-07
-8.203109846e-10
-4.621300072e-08
2.995669918e-08
1.780681101e-08
-4.973452066e-09
-7.083294151e-09
9.918233639e-09
2.483472255e-09
-5.625560605e-09
-5.823588308e-10
6.240970815e-09
1.696840562e-10
-8.199899665e-09
-1.256001549e-09
5.565162681e-09
3.756019722e-09
-8.884707323e-09
-7.794661347e-09
7.6175359e-09
1.363575377e-08
-4.894113042e-09
-2.12250085e-08
8.109929259e-09
3.011342945e-08
-1.941584156e-10
-3.948339762e-08
3.788779061e-09
4.364767565e-08
4.741443899e-10
2.414870565e-10
5.362366687e-08
-4.300453542e-08
-4.978198266e-08
-7.553401607e-09
4.66186837e-08
-2.319965379e-10
6.611740905e-10
3.942651173e-10
-1.006791073e-09
-1.039327582e-10
7.933946992e-10
-7.90896345e-07
-9.033627084e-10
4.916810776e-07
3.090579803e-07
-1.135657578e-06
-5.418318224e-07
1.028762669e-06
6.695529249e-07
-3.860069124e-07
-5.565040457e-07
5.699697389e-07
3.849057705e-07
-1.011451821e-07
-2.394579542e-07
2.066081103e-07
1.390946972e-07
-2.836727195e-08
-7.673956398e-08
6.677138611e-08
4.032142755e-08
-1.001321097e-08
-2.04144901e-08
2.112741917e-08
9.972237882e-09
-4.593649891e-09
-5.032331905e-09
6.544781496e-09
3.418228153e-09
-4.396731483e-09
-3.601598445e-09
3.734483667e-09
4.900507164e-09
-5.350884679e-09
-7.112653745e-09
3.772633461e-09
1.010286773e-08
-4.508534522e-09
-1.334014426e-08
3.735912835e-09
1.642604008e-08
-3.660471043e-09
-2.016313608e-08
3.886869519e-09
2.543907069e-08
-1.130391945e-09
-3.230303441e-08
4.723983457e-09
4.194188387e-08
-7.153789443e-10
-5.839375191e-08
8.556609287e-09
8.16481791e-08
2.328379253e-09
1.291734807e-07
-1.425150951e-07
-8.759995071e-10
-6.8719854e-11
1.124290461e-09
1.312851509e-10
-7.690687743e-10
-1.437802199e-10
7.109471183e-10
1.045660654e-10
-6.940323486e-10
-1.330622678e-10
7.186479316e-10
-3.067315364e-07
-7.961315542e-10
1.917724198e-07
1.208043233e-07
-8.871892259e-07
-3.01182986e-07
7.369694487e-07
4.689733699e-07
-6.898608964e-07
-5.310595999e-07
7.45401299e-07
4.929124382e-07
-3.270182992e-07
-4.007526086e-07
4.423797686e-07
2.968094446e-07
-1.265664849e-07
-2.049591615e-07
2.038787696e-07
1.338077141e-07
-4.367755974e-08
-8.325616542e-08
8.028391091e-08
4.949362467e-08
-1.312813008e-08
-2.816627909e-08
2.688042837e-08
1.570690738e-08
-5.044527404e-09
-9.256890454e-09
9.119876381e-09
6.488890335e-09
-3.742212168e-09
-6.667973611e-09
3.303850234e-09
6.670171644e-09
-3.675538931e-09
-7.550651452e-09
4.374157195e-09
9.374019968e-09
-4.314105852e-09
-1.227079385e-08
5.133395156e-09
1.682590299e-08
-6.458270128e-09
-2.410094417e-08
7.610323924e-09
3.587313346e-08
-1.165621431e-08
-5.477046482e-08
1.309983495e-08
8.36392845e-08
-1.620439852e-08
-1.244061727e-07
2.0671929e-08
1.761637849e-07
-8.947812214e-08
2.298564948e-08
3.859120612e-07
-2.378653327e-07
-3.109204955e-07
3.941639352e-08
6.410837711e-10
-9.790084677e-10
-4.010449694e-10
9.212087095e-10
1.477013638e-10
-1.027540625e-09
-1.491135524e-10
1.074807665e-09
1.60058458e-10
-1.026070546e-09
-1.613938959e-10
9.386744564e-10
3.222284503e-10
-9.125390814e-10
-1.024307103e-09
1.346990982e-09
-1.199535628e-07
-1.724159589e-09
7.506392078e-08
4.918004849e-08
-5.949830125e-07
-1.558967279e-07
4.701052528e-07
2.944285504e-07
-7.485374657e-07
-4.075476502e-07
7.143971498e-07
4.60828444e-07
-5.381548075e-07
-4.526757685e-07
6.06770553e-07
4.009570711e-07
-2.911081426e-07
-3.279655911e-07
3.793779047e-07
2.516335573e-07
-1.312969709e-07
-1.829830959e-07
1.946478881e-07
1.268940799e-07
-5.017578687e-08
-8.427367361e-08
8.456665975e-08
5.401029673e-08
-1.661890376e-08
-2.756748391e-08
3.627086039e-08
3.194687162e-08
-7.740249362e-09
-1.259981337e-07
5.965843764e-08
1.422006991e-07
-6.332864902e-09
-7.747597749e-08
1.846175838e-08
3.091860441e-08
-6.800882688e-09
-1.898989568e-08
1.035324328e-08
2.062251193e-08
-9.293786706e-09
-2.761264039e-08
1.27896817e-08
3.980183575e-08
-1.427300655e-08
-5.933215032e-08
1.666118702e-08
8.85006317e-08
-1.996563313e-08
-1.277816884e-07
1.754956378e-08
1.741851271e-07
-1.843897242e-08
-2.209227174e-07
1.346103629e-08
2.555373368e-07
-7.075865257e-09
-2.612804846e-07
1.04170278e-08
2.477493974e-07
5.769251412e-08
-2.929583797e-07
6.321676554e-09
-2.642186256e-09
-4.166176246e-09
1.225241449e-09
2.445466335e-10
-4.87594919e-10
-1.7304026e-10
4.059682195e-10
9.561479641e-11
-4.306533089e-10
-4.560626751e-11
4.889159339e-10
1.341171321e-10
-5.479827906e-10
-6.244461315e-11
6.004976161e-10
2.230663298e-09
-1.605166458e-09
-2.846961228e-09
3.317036174e-09
-4.731955741e-08
-5.417358808e-09
3.043689334e-08
2.443557509e-08
-3.656413627e-07
-8.133729614e-08
2.816148494e-07
1.761063637e-07
-6.570939922e-07
-2.831154567e-07
5.881926557e-07
3.711252879e-07
-6.466082865e-07
-4.205848096e-07
6.601916359e-07
4.275716112e-07
-4.606855797e-07
-3.994192638e-07
5.292024001e-07
3.485270964e-07
-2.663346387e-07
-2.873236175e-07
3.413156081e-07
2.255722334e-07
-1.30306507e-07
-1.696899652e-07
1.861434591e-07
1.231808519e-07
-5.661863265e-08
-8.66600497e-08
8.925000145e-08
6.471514213e-08
-5.938671627e-08
-6.808803243e-08
5.951672555e-08
5.192234541e-08
-2.11936174e-08
-3.841256936e-08
3.134133574e-08
3.458906842e-08
-1.679042326e-08
-3.855838731e-08
2.957991111e-08
4.93083899e-08
-2.013342734e-08
-6.718064205e-08
3.40851875e-08
9.095552491e-08
-2.264450286e-08
-1.154755354e-07
3.21602057e-08
1.326442989e-07
-1.916326095e-08
-1.361210169e-07
2.003730307e-08
1.24810895e-07
-1.130914221e-08
-1.01994794e-07
2.455710209e-10
6.945752599e-08
1.498163976e-10
-3.407237368e-08
-1.717345197e-10
1.063133819e-08
3.817946885e-10
-2.234354619e-09
-3.065846533e-10
6.074518281e-10
-1.020807504e-09
-8.069603172e-10
9.718550061e-09
-2.057613415e-08
-3.550402635e-11
-9.207413099e-10
2.655282795e-09
-2.569930618e-09
1.41101708e-09
1.78251346e-10
-7.995161325e-10
-2.080105865e-10
4.811372149e-10
2.68757326e-13
-3.176613716e-10
6.491987918e-11
2.374916273e-10
-1.883642644e-11
-1.868598349e-10
7.059629868e-11
1.830518078e-10
2.456797843e-09
-1.618834832e-09
-2.134141045e-09
4.483492476e-09
-2.034541251e-08
-1.06579051e-08
1.423941489e-08
2.358449677e-08
-2.166925719e-07
-5.440623388e-08
1.696506365e-07
1.132667956e-07
-5.168327053e-07
-1.946226098e-07
4.504464614e-07
2.812079286e-07
-6.526009642e-07
-3.539405549e-07
6.30543982e-07
3.998978462e-07
-5.818281417e-07
-4.146506591e-07
6.183313951e-07
4.010082095e-07
-4.145579176e-07
-3.659809851e-07
4.820802346e-07
3.180023142e-07
-2.495673045e-07
-2.65020094e-07
3.174804946e-07
2.135605272e-07
-1.330825489e-07
-1.683744548e-07
1.863402197e-07
1.325162682e-07
-7.732757365e-08
-1.085486209e-07
1.129075801e-07
9.321422441e-08
-5.223624796e-08
-8.923446452e-08
8.769143621e-08
9.786724683e-08
-5.258987435e-08
-1.175421748e-07
8.61268655e-08
1.402469882e-07
-5.278016751e-08
-1.522632434e-07
6.513108697e-08
1.439795711e-07
-3.600395232e-08
-1.159509754e-07
2.464050473e-08
7.780695648e-08
-9.313678824e-09
-4.05367104e-08
5.827961913e-10
1.336398784e-08
1.10014042e-10
-2.352381873e-09
-2.074081388e-11
2.785182017e-10
4.144642161e-11
-4.195509931e-11
-4.927757336e-11
3.192686767e-11
4.628078625e-10
-3.727335725e-11
-7.08919954e-10
3.352056143e-10
9.80894089e-10
-1.150586799e-09
9.573900252e-10
-6.337373142e-10
-3.444377637e-09
-5.139742555e-08
5.307545344e-09
1.204832025e-08
1.613534892e-09
-6.170571823e-10
3.088446227e-09
-2.628819565e-08
-3.933769321e-10
3.896031407e-08
7.350179151e-10
-2.095388196e-08
-1.884272537e-09
5.650264228e-09
-5.045288063e-11
-2.596965353e-09
-6.324311362e-09
2.62465839e-09
1.886213663e-09
-4.599080746e-09
-6.930379916e-09
7.928812694e-09
2.538502242e-09
-1.184462153e-08
-2.380839149e-09
1.551620363e-08
-7.8759164e-09
-1.828977537e-08
1.300190914e-09
3.141233928e-08
-1.390722426e-07
-5.869650914e-08
1.19502184e-07
9.81675787e-08
-3.946082278e-07
-1.556644729e-07
3.519478255e-07
2.262134538e-07
-6.015566562e-07
-2.98170553e-07
5.725745905e-07
3.591955054e-07
-6.411713003e-07
-4.004064846e-07
6.546835254e-07
4.179244639e-07
-5.417715301e-07
-4.126316502e-07
5.936809424e-07
3.887962455e-07
-3.870488042e-07
-3.525289711e-07
4.564969475e-07
3.105151638e-07
-2.480406363e-07
-2.69072313e-07
3.171274409e-07
2.335501502e-07
-1.645343624e-07
-2.086568325e-07
2.321965385e-07
1.999295803e-07
-1.402171479e-07
-2.129016595e-07
1.965390901e-07
2.259915167e-07
-1.170834072e-07
-2.16481846e-07
1.196819645e-07
1.781689492e-07
-5.611675537e-08
-1.210377288e-07
3.223460587e-08
6.588284822e-08
-1.015877252e-08
-2.805105189e-08
1.407243142e-09
7.168153896e-09
1.054497824e-11
-7.867684038e-10
-1.4781893e-11
8.097507983e-11
2.213763224e-11
-6.346120745e-11
-2.38071615e-11
9.779196104e-11
1.102548819e-10
-1.527967868e-10
-1.712610606e-10
5.705665055e-10
9.616092565e-10
-1.18532324e-09
-9.707938606e-10
1.451901447e-09
1.387063992e-09
-1.922827858e-09
-1.728758099e-09
2.312193614e-09
1.519234216e-09
-1.881160481e-09
2.499068328e-09
-2.458054272e-09
-2.118940895e-09
5.015259896e-09
-8.833064397e-10
-7.073966831e-09
-1.431684929e-08
1.003043026e-08
9.417010124e-09
-1.437652231e-09
1.014392593e-09
8.060718489e-10
-2.109645817e-09
-6.383007147e-10
2.474640589e-09
-1.10828976e-09
-2.377601339e-10
3.461417859e-09
4.328108156e-09
-5.994933307e-09
3.234639446e-12
8.717071186e-09
3.643672724e-09
-1.136244061e-08
2.737528203e-09
1.364017782e-08
-1.272753963e-09
-1.51975797e-08
7.564218269e-09
1.71007779e-08
-2.343527989e-09
-1.983226821e-08
7.482973862e-09
2.241632496e-08
-1.018550117e-07
-4.138124522e-08
7.763353921e-08
8.391991771e-08
-3.201420361e-07
-1.379152335e-07
2.920237012e-07
2.019627263e-07
-5.477547597e-07
-2.708280295e-07
5.26807877e-07
3.364466203e-07
-6.635029848e-07
-3.910835953e-07
6.713585118e-07
4.299867529e-07
-6.401789028e-07
-4.52278558e-07
6.878959169e-07
4.589907263e-07
-5.267044862e-07
-4.522453349e-07
6.049657504e-07
4.35376663e-07
-3.937624956e-07
-4.127301062e-07
4.815255381e-07
3.890343606e-07
-3.119238341e-07
-3.707589374e-07
3.904008259e-07
3.607625609e-07
-2.298985077e-07
-3.361675064e-07
2.187963517e-07
2.432186997e-07
-8.476244612e-08
-1.377862953e-07
3.748887971e-08
6.036788281e-08
-5.713384229e-09
-1.878507468e-08
-1.126664197e-10
3.575960576e-09
1.533837303e-11
-4.564289739e-10
-8.962528965e-11
7.684358061e-11
5.828129893e-11
-1.614845502e-10
-5.678990182e-10
3.700734028e-10
9.547057453e-11
-5.720325125e-10
-9.851696407e-10
6.680857123e-10
2.751473938e-10
-7.070389921e-10
-8.382647198e-10
1.100959239e-09
8.959218913e-10
-2.07190559e-09
-6.623106115e-10
3.734938724e-09
1.765369039e-09
-5.650171331e-09
-1.17729022e-09
7.086896333e-09
1.957807585e-09
-7.363192742e-09
-1.542001649e-09
6.125792856e-09
-5.991461758e-10
-4.158820525e-09
-1.263093422e-08
-1.86901424e-08
1.328850379e-08
5.326857208e-09
-8.366428602e-09
-1.016652132e-08
-5.969110677e-10
8.340068915e-09
-5.056150708e-09
-6.171347339e-09
3.008961839e-09
5.082183003e-09
-2.18678674e-09
-4.956953056e-09
-8.141245859e-10
6.184453306e-09
1.030818514e-09
-3.496438821e-09
-5.388057868e-09
-1.025931215e-09
7.700816293e-09
5.650027136e-09
-9.093574331e-09
-9.831770589e-09
1.144360886e-08
1.247804372e-08
-1.247009088e-08
-1.434900536e-08
1.242358978e-08
1.616429517e-08
-1.102823441e-08
-1.69934848e-08
1.007021347e-08
1.69187297e-08
-4.077988222e-08
-2.853978523e-08
-3.390337099e-09
4.544205637e-08
-2.587452211e-07
-9.564547535e-08
2.120311176e-07
1.605985835e-07
-5.04661008e-07
-2.360077107e-07
4.693573977e-07
3.138938056e-07
-6.816485648e-07
-3.898180421e-07
6.953382925e-07
4.670252261e-07
-7.495350134e-07
-5.446751754e-07
8.218732724e-07
6.08653322e-07
-7.007904888e-07
-6.467091781e-07
7.796918326e-07
6.55486346e-07
-5.768006403e-07
-6.362928602e-07
6.023056583e-07
5.890408859e-07
-4.343514682e-07
-5.109321692e-07
3.383635333e-07
3.908969345e-07
-1.382380988e-07
-2.286742539e-07
4.001431897e-08
7.69244727e-08
-9.914552293e-09
-1.731914809e-08
1.225653778e-09
3.255601722e-09
-3.960338066e-11
-4.762576483e-10
1.373010745e-11
5.440163879e-11
8.397510651e-10
-7.376984214e-12
-5.898642327e-09
2.642615732e-09
2.784340228e-09
-5.796855916e-09
-6.892931761e-09
8.61960054e-09
3.968566542e-09
-1.094225032e-08
-7.653346811e-09
1.254837427e-08
2.804520783e-09
-1.285788696e-08
-7.1128343e-09
1.207796504e-08
3.898589824e-10
-1.083911511e-08
-2.170399584e-09
9.620420935e-09
-7.337595563e-11
-8.244831393e-09
1.601153811e-10
4.965333713e-09
3.664287502e-11
-1.249909229e-09
-6.18637416e-12
1.731962121e-10
-1.767420217e-10
-2.602013978e-11
3.567974239e-10
-1.114344307e-10
3.667640587e-09
3.817483438e-09
-4.44760245e-08
3.990770101e-08
1.420703507e-10
-5.771609601e-10
-3.376745049e-08
-2.723275374e-09
2.672421292e-08
3.081632159e-09
-2.074193601e-08
-3.353148834e-09
1.606196038e-08
6.183772717e-10
-1.174637981e-08
-6.110716338e-09
7.000955094e-09
1.245710396e-08
-2.670868103e-09
-1.184371181e-08
-7.280447182e-10
1.653976301e-08
3.894645569e-09
-1.42308379e-08
-7.872466841e-09
1.689735052e-08
1.198934141e-08
-1.415305526e-08
-1.271177874e-08
1.016512167e-08
-1.43804026e-09
-1.408904524e-08
1.926798588e-08
1.315360669e-08
-1.376902178e-09
7.021068175e-10
-4.835746251e-09
2.886530291e-10
2.259379504e-08
-1.373226314e-07
-3.651409866e-08
6.576571806e-08
6.90495433e-08
-4.024262229e-07
-1.262873167e-07
2.998944921e-07
2.027394867e-07
-6.851779958e-07
-2.89269842e-07
5.804148096e-07
3.771564852e-07
-8.222682134e-07
-4.41403588e-07
5.971075834e-07
4.570027769e-07
-7.007275002e-07
-4.143628415e-07
3.022202816e-07
3.227435451e-07
-3.929875035e-07
-2.107154974e-07
8.092894922e-08
1.214423723e-07
-1.205929909e-07
-7.311811768e-08
2.247247731e-08
5.232277122e-08
-7.907358773e-09
-5.010671516e-08
4.822980436e-09
4.343826475e-08
1.586253081e-09
-3.633632563e-08
-7.364591763e-09
3.012460428e-08
3.861215915e-09
-2.639175903e-08
-1.53437168e-08
2.51912578e-08
5.726315773e-09
-2.513905493e-08
-1.702846014e-08
2.528906249e-08
6.661954653e-09
-2.600309051e-08
-1.063167605e-08
2.761632856e-08
8.170158215e-09
-3.005269485e-08
-7.176728833e-09
3.244508849e-08
8.496036888e-09
-3.362070998e-08
-8.009735113e-09
3.34590655e-08
6.365888895e-09
-3.207002086e-08
-7.175957305e-09
2.929991261e-08
4.307267476e-09
-2.526226189e-08
-5.521329106e-09
2.045794798e-08
1.706435096e-09
-1.518990131e-08
-3.232277167e-09
9.524968328e-09
3.27170599e-10
-1.169396013e-09
1.522069054e-09
-4.392324584e-09
4.540587078e-09
8.342459178e-09
-3.893489042e-09
-6.006920536e-09
1.890823673e-09
3.526871424e-09
-1.931228781e-09
-1.68493123e-09
3.196360723e-10
7.066237634e-10
-3.975667876e-10
-3.293132801e-10
1.472220649e-10
2.385810713e-10
-1.113129185e-10
-2.422885823e-10
1.336509767e-10
2.797206089e-10
-2.732804151e-10
-2.842646927e-10
-7.733990342e-10
2.56954564e-10
-2.090070193e-10
-2.129797607e-10
5.744734573e-11
2.319636097e-10
-4.113513057e-10
-3.196436305e-10
4.513281352e-10
5.088198266e-10
-1.06460437e-09
-7.58438319e-10
-2.955287417e-09
1.207615301e-09
-6.251634822e-10
-1.443174711e-09
1.105555804e-09
9.048791836e-11
-1.412731867e-09
-6.8412424e-10
-3.448409021e-09
1.430484651e-09
-3.557815062e-09
4.814661717e-10
-1.671062302e-07
-1.195092556e-08
2.027840047e-08
4.299762872e-08
-3.494132405e-07
-7.349649047e-08
6.721780172e-08
7.072887919e-08
-1.635669697e-07
-2.507186744e-08
2.411899241e-09
1.681256441e-10
-1.376029727e-08
1.265730754e-09
-7.055392976e-09
2.214936026e-09
-4.300060563e-09
-6.297979467e-09
6.236681003e-09
1.164266569e-08
-9.297482856e-09
-2.149710745e-08
1.068819917e-08
2.895355472e-08
5.062043668e-09
-3.191469883e-08
4.462395554e-09
3.337559683e-08
1.342162309e-08
-3.692134919e-08
-2.829917656e-09
4.353304451e-08
2.427974238e-08
-5.336994191e-08
-1.349940892e-08
6.666896312e-08
3.462299499e-08
-8.317777275e-08
-2.935796061e-08
1.004249999e-07
2.865357249e-08
-1.120279381e-07
-4.038448451e-08
1.094854033e-07
1.068265242e-08
-9.149985592e-08
-2.136536608e-08
6.971306541e-08
7.7983096e-09
-5.506499351e-08
-7.661713431e-09
4.784548001e-08
8.026645044e-09
-4.418495972e-08
-6.650791197e-09
4.146279038e-08
6.299451184e-09
-3.854039299e-08
-5.586786544e-09
3.488430263e-08
3.724533783e-09
-3.011162204e-08
-3.878506152e-09
2.408524944e-08
1.766792125e-09
-1.723662167e-08
-2.403720241e-09
1.063181186e-08
8.741687402e-10
-9.861978023e-10
-5.560447369e-09
4.429180448e-09
2.556350138e-09
-1.31946684e-09
-4.136579769e-09
1.68316878e-09
3.674272566e-09
-1.038519721e-09
-2.942916279e-09
4.499557656e-10
1.908040858e-09
-5.036988889e-10
-8.57702039e-10
5.160525474e-11
3.361077631e-10
2.082502676e-11
-2.64567188e-10
1.921964666e-10
2.821628168e-10
-1.887007289e-10
-2.690189698e-10
2.33285445e-10
2.863892891e-10
-2.653265915e-10
-3.708264059e-10
5.127805798e-10
5.517314417e-10
-6.566993475e-10
-8.303923707e-10
1.20721908e-09
1.084196306e-09
-1.316857867e-09
-1.143312707e-09
1.240037276e-09
1.016788825e-09
-1.378213941e-09
-1.030937924e-09
1.538791463e-09
7.801445253e-10
-1.583251433e-09
-1.251613043e-09
3.649914264e-09
1.91363901e-09
-2.967405267e-09
-2.079890036e-09
2.849958866e-09
1.750175262e-09
-2.25437767e-09
-1.122461628e-09
4.635940323e-09
-5.372745887e-10
-7.165412622e-09
4.063786589e-09
1.943442564e-09
-4.319617692e-09
-1.069706152e-08
1.905986428e-09
3.439314481e-09
-8.032336648e-10
-6.061251113e-09
2.372809439e-09
-1.512990553e-09
-3.416798279e-09
-4.874837013e-09
6.931080173e-09
-1.470765615e-08
-1.546114649e-08
-1.879423675e-09
2.25199673e-08
-1.383865075e-08
-2.523927331e-08
-1.211315047e-09
2.366790641e-08
1.194890345e-09
-2.049463227e-08
-1.340740773e-09
2.128392653e-08
5.82199047e-09
-2.555821343e-08
-2.239189718e-09
3.31183606e-08
1.67840692e-08
-4.618373181e-08
-8.094315616e-09
6.675960539e-08
3.57374997e-08
-9.153314843e-08
-2.611577018e-08
1.112143652e-07
3.190911697e-08
-1.164440264e-07
-2.844581435e-08
1.042152442e-07
1.167535508e-08
-8.239179145e-08
-1.227690918e-08
6.387756989e-08
6.208306222e-09
-5.375816649e-08
-5.261719056e-09
4.904688787e-08
4.982323484e-09
-4.576776906e-08
-4.468657652e-09
4.182566558e-08
3.877714777e-09
-3.669312693e-08
-4.009602211e-09
3.065615339e-08
2.578298628e-09
-2.427557594e-08
-2.879247185e-09
1.806295173e-08
6.901905511e-10
6.961387997e-10
-1.224529458e-08
9.049068198e-10
-6.934301688e-10
-2.148650542e-09
1.680248077e-09
5.689371188e-10
-3.835688411e-10
-1.321264336e-09
3.566676487e-10
1.058685072e-09
-1.87667949e-10
-8.733240934e-10
2.150747642e-10
7.406775984e-10
-1.055590362e-10
-6.321340798e-10
1.356758805e-10
5.247339833e-10
-1.003016253e-10
-4.243038944e-10
1.814240293e-10
3.899205635e-10
-1.617939662e-10
-4.874466757e-10
3.142377948e-10
6.853760961e-10
-4.828790126e-10
-1.013557083e-09
8.690125957e-10
1.389177803e-09
-1.280556208e-09
-1.620345432e-09
1.366049391e-09
1.589979574e-09
-1.34127949e-09
-1.353058887e-09
1.243283907e-09
1.053517005e-09
-1.001795524e-09
-8.412468022e-10
1.42187986e-09
8.516068422e-10
-1.074497886e-09
-1.082707753e-09
1.994395818e-09
1.192592955e-09
-1.105684691e-09
-1.014310858e-09
1.326947493e-09
7.45375919e-10
-8.557510866e-10
-3.301706146e-10
5.471119459e-09
-6.577437811e-10
-3.756187181e-09
4.655990168e-09
1.742796058e-08
-1.230821431e-08
-1.582428121e-08
2.096951231e-08
1.245501793e-08
-2.112504427e-08
-1.915333171e-08
1.279039573e-08
5.524645555e-09
-5.951458718e-09
-6.634683388e-09
3.867130871e-09
4.408981239e-09
-4.03260394e-09
-5.377941204e-09
4.090985404e-09
3.091346132e-09
-3.617994912e-09
-6.093255798e-09
2.931954437e-09
3.134945422e-09
-2.440347837e-09
-7.177910541e-09
2.36484359e-09
5.443847427e-09
-2.992476744e-09
-1.183132928e-08
3.79605624e-09
7.997801981e-09
-5.217541264e-09
-1.159960857e-08
9.112766697e-09
2.074098786e-08
-1.952278803e-08
-1.857742638e-08
3.83437674e-08
2.252355679e-08
-5.792191387e-08
-1.878531192e-08
6.84901767e-08
1.070930433e-08
-6.764854468e-08
-9.883677273e-09
6.062135488e-08
4.596021355e-09
-5.361013385e-08
-4.704186712e-09
4.897509491e-08
3.568713913e-09
-4.608042625e-08
-2.915505433e-09
4.367381067e-08
3.120210248e-09
-4.095315523e-08
-2.046557259e-09
3.762348079e-08
2.42119832e-09
-3.369820255e-08
-1.519034178e-09
2.931562847e-08
1.890927441e-09
-1.271603809e-09
2.002552211e-08
-2.471293539e-08
7.534027118e-10
-7.436314244e-10
-2.88286416e-09
1.959329854e-09
3.795813785e-10
-3.98002973e-10
-1.275988567e-09
1.504764841e-10
8.068527226e-10
-1.670293626e-10
-5.123937476e-10
6.523242664e-11
3.502695205e-10
-7.83420646e-11
-2.842197154e-10
5.615729396e-11
2.946754834e-10
-6.909723857e-11
-4.195779922e-10
2.011183536e-10
8.516565082e-10
-6.428038956e-10
-1.926087243e-09
1.222080273e-09
3.567524082e-09
-3.000844692e-09
-4.790811216e-09
2.006090684e-09
4.773144421e-09
-2.715794362e-09
-3.745696019e-09
1.20584048e-09
2.475556496e-09
-9.455042007e-10
-1.495884545e-09
6.69764005e-10
9.195626896e-10
-3.318331245e-10
-6.463720539e-10
6.524583194e-10
5.391345501e-10
-2.904379042e-10
-4.71624227e-10
5.073668011e-10
3.781344213e-10
-1.886868023e-10
-3.310782006e-10
7.725756695e-10
4.350062323e-10
-6.008923939e-10
-3.696991916e-10
2.540393338e-09
-8.396064602e-10
-1.623231599e-09
2.537941607e-09
1.020786918e-08
-6.649699639e-09
-5.053412625e-09
1.5918788e-08
1.82920139e-08
-2.78830279e-08
-9.466888177e-09
3.142158382e-08
8.340408532e-09
-2.257434323e-08
-6.902359752e-09
1.064467241e-08
7.17193149e-09
-6.366174392e-09
-1.287445119e-08
7.858339206e-09
1.405415435e-08
-9.560242637e-09
-3.088321538e-08
7.346305241e-09
1.74927523e-08
-4.069059784e-09
-3.486804071e-08
3.156208747e-09
2.316468684e-08
-4.571462245e-09
-3.636604761e-08
5.644122862e-09
1.637641496e-08
-6.659246532e-09
-1.998133548e-08
8.610128214e-09
1.703193309e-08
-1.181199167e-08
-1.447754481e-08
1.709900337e-08
1.481488404e-08
-2.424184167e-08
-1.045430164e-08
3.088088366e-08
7.953605452e-09
-3.509706947e-08
-5.190509557e-09
3.718550408e-08
3.415744431e-09
-3.840810705e-08
-1.146428152e-09
3.949633621e-08
1.251062945e-09
-4.051010204e-08
1.185265164e-09
4.123403416e-08
3.36119916e-10
-4.142409735e-08
1.993721993e-09
4.091447609e-08
9.366569224e-11
-3.963757827e-08
1.964128985e-09
3.75873623e-08
-9.530831968e-12
1.706121429e-09
3.132441701e-08
-3.480701771e-08
5.841372133e-10
-3.940669308e-10
-3.041381004e-09
2.424113941e-09
3.544521485e-10
-2.908541012e-10
-1.899805934e-09
1.792129132e-10
1.501409261e-09
-2.020406067e-10
-1.255433237e-09
1.072758375e-10
1.206370593e-09
-2.197177666e-10
-1.4839022e-09
1.814374748e-10
2.429122363e-09
-6.962552652e-10
-4.529886822e-09
2.024957153e-09
7.654171264e-09
-2.471046006e-09
-1.062132577e-08
4.364238903e-09
1.190093858e-08
-3.278050667e-09
-1.072720968e-08
2.651396433e-09
7.875039837e-09
-1.798698283e-09
-4.772486523e-09
6.42793845e-10
2.391708758e-09
-4.627650295e-10
-1.00798571e-09
1.066831388e-10
4.086995767e-10
-2.871271063e-11
-2.133225919e-10
7.260341385e-11
1.392187302e-10
-7.950602548e-13
-7.951736879e-11
3.348028219e-11
4.613462235e-11
-1.479506952e-12
-4.331968245e-11
5.700035125e-11
5.791398833e-11
-8.129382569e-12
-4.972063776e-11
1.205068624e-09
-7.655528961e-12
1.782446986e-10
6.244252789e-10
2.223843308e-09
4.739869374e-10
-9.605733624e-10
-1.990322932e-10
7.980331811e-10
-6.731802492e-10
-9.370183165e-10
5.916085732e-10
4.159769473e-09
-4.357189639e-10
-1.250280756e-08
3.487724445e-09
2.987506815e-08
-9.549690816e-09
-5.909248291e-08
1.261787299e-08
5.206618072e-08
-1.148583684e-08
-6.46655728e-08
6.012810981e-09
5.03461998e-08
-1.835205243e-10
-5.477691345e-08
4.972802362e-10
4.392134645e-08
-1.435633829e-09
-4.054821553e-08
-1.014118726e-09
2.010412226e-08
9.965661923e-10
-1.744878095e-08
8.362284652e-10
1.068790078e-08
-2.776223723e-09
-7.345745108e-09
4.259800894e-09
6.375489724e-09
-6.383647917e-09
-3.736984603e-09
9.936809377e-09
2.431381098e-09
-1.441100492e-08
-7.388508596e-10
1.920094525e-08
-9.54361646e-10
-2.373875149e-08
2.502099595e-09
2.779307306e-08
-3.046221879e-09
-3.13147475e-08
4.327181128e-09
3.425000497e-08
-3.811655346e-09
-3.650747815e-08
4.980200834e-09
3.800270362e-08
-3.784618806e-09
-3.869400678e-08
5.009847897e-09
3.858122622e-08
-3.374477136e-09
4.598627058e-09
3.60638432e-08
-3.768938473e-08
3.332207282e-10
-3.549944038e-11
-4.950146814e-09
5.956284231e-09
2.863698509e-10
-6.918941346e-11
-6.630625881e-09
2.319416185e-10
6.921174052e-09
-9.067934626e-11
-6.847966108e-09
3.448000112e-10
6.487711098e-09
-1.221744922e-10
-5.943721263e-09
7.382109176e-10
5.337683035e-09
-2.440303858e-10
-4.771622647e-09
1.310995217e-09
4.245423975e-09
-3.745361672e-10
-3.653352897e-09
1.301950868e-09
3.027807097e-09
-2.16944189e-10
-2.729186244e-09
9.35825208e-10
3.056129176e-09
-8.980095793e-11
-3.782302574e-09
4.707558538e-10
4.225087377e-09
-2.066002311e-10
-3.72220445e-09
-1.004964287e-11
2.201645074e-09
1.632010989e-10
-8.440301318e-10
-5.590282601e-12
3.671390257e-10
1.014723308e-10
-1.550847224e-10
-8.696595323e-12
8.166612812e-11
2.640442791e-11
-7.176052232e-11
-3.723012309e-11
9.145654828e-11
2.55035624e-11
-1.213934051e-10
-1.04798305e-10
1.438981372e-10
1.039227634e-10
-1.484906595e-10
2.378222658e-09
-1.558981648e-09
-7.301946512e-09
4.597848328e-09
2.812634353e-09
-8.370320973e-09
-2.923147531e-08
1.504369257e-08
4.689351897e-08
-2.348378768e-08
-6.252402645e-08
1.770180672e-08
7.481172232e-08
-4.303150559e-09
-6.732395361e-08
-7.217365737e-09
6.440449745e-08
1.185124395e-08
-5.407395518e-08
-1.45070304e-08
4.903986904e-08
1.547581945e-08
-3.703373624e-08
-1.127698497e-08
3.026046813e-08
8.867552998e-09
-2.106908214e-08
-8.113502125e-09
1.42107652e-08
5.859363915e-09
-1.22371073e-08
-3.494596405e-09
6.138545395e-09
1.830204683e-09
-5.798950485e-09
-7.165846983e-10
2.357593289e-09
-1.389676316e-10
-1.992910296e-09
8.709739499e-10
5.336395594e-10
-2.139394407e-09
-9.67307161e-10
5.172307505e-09
-2.657930963e-09
-9.822559183e-09
1.740939592e-09
1.389575211e-08
-4.777820486e-09
-1.782311551e-08
3.833416021e-09
2.178304424e-08
-5.599169494e-09
-2.535931494e-08
5.300835181e-09
2.836831234e-08
-5.715948221e-09
-3.081249386e-08
5.992727574e-09
3.271182072e-08
-5.466172842e-09
6.112626766e-09
3.465098528e-08
-3.400550092e-08
-6.255859278e-11
-1.266854246e-09
3.734399928e-09
2.243426578e-10
3.072262027e-10
-7.198474564e-09
2.190110482e-10
8.565567602e-09
2.760353861e-10
-7.172827047e-09
4.559459938e-11
4.587356334e-09
1.456924652e-10
-2.483372372e-09
1.879913028e-11
1.25649454e-09
9.835838857e-11
-6.15078444e-10
6.820808407e-12
2.819348901e-10
3.072654637e-11
-1.19026018e-10
1.509602955e-12
5.908800611e-11
7.981134307e-12
-5.96478411e-11
3.517849226e-12
9.905966627e-11
1.833672732e-11
-1.760409803e-10
1.494382997e-11
3.046520449e-10
8.410129442e-11
-5.161540869e-10
-1.141662659e-09
8.457988136e-10
3.804604855e-10
-3.92001369e-10
-1.200950972e-10
-5.6903259e-10
-2.762789e-09
2.543121355e-09
2.136840037e-09
-6.184224622e-09
-1.291896641e-08
1.297619644e-08
1.314043308e-08
-1.783121552e-08
-1.322715425e-08
1.995741348e-08
-2.071209673e-11
-2.385788795e-08
-1.145983429e-08
2.831199667e-08
2.109424067e-08
-2.41918763e-08
-3.653111088e-08
1.981011813e-08
5.537685668e-08
-9.341542668e-09
-5.528390744e-08
-9.031707276e-09
5.84083323e-08
2.270040582e-08
-4.880090062e-08
-3.002682544e-08
5.394249305e-08
3.260359405e-08
-4.167121563e-08
-3.041454403e-08
4.009709075e-08
2.579004146e-08
-3.004160308e-08
-2.025834452e-08
2.589733317e-08
1.528108885e-08
-2.045486494e-08
-1.160404448e-08
1.757198681e-08
8.943188846e-09
-1.511230594e-08
-6.911734986e-09
1.118606116e-08
5.163824541e-09
-1.063227136e-08
-3.655547848e-09
5.832009143e-09
2.370321969e-09
-5.985270263e-09
-1.325373716e-09
2.213800337e-09
5.513123846e-10
-2.336007767e-09
-7.730177841e-13
9.171792936e-10
-3.717066719e-10
-9.23340509e-10
6.451551986e-10
3.646122647e-10
-1.042188762e-09
-6.506234191e-10
1.772447421e-09
-2.488360451e-09
-4.428371773e-09
-3.906795702e-11
8.748149542e-09
-3.966166973e-09
-1.22648391e-08
3.062859108e-09
1.546249559e-08
-5.340961579e-09
-1.871985827e-08
4.561269566e-09
2.198906085e-08
-6.290465447e-09
4.55633508e-10
3.338278222e-08
-2.510322817e-08
6.211411541e-10
-1.360779346e-10
1.945655697e-10
-6.428697475e-10
-4.952637621e-11
5.55677212e-10
2.590953508e-11
-3.881417616e-10
2.230680795e-11
3.001236399e-10
-2.272854056e-11
-3.749613625e-10
-1.484068363e-10
8.729837172e-10
-3.529347259e-11
-2.250927177e-09
-2.57749774e-10
3.403839558e-09
2.81853547e-10
-2.681711094e-09
-8.016633195e-11
1.393196297e-09
5.904618895e-10
-6.021137094e-10
-3.221854386e-11
2.632168515e-10
1.874570693e-10
-1.425566387e-10
-8.658623239e-11
1.155643423e-10
1.14094519e-10
-1.284696939e-10
-2.896223366e-10
1.3686533e-10
2.34789917e-10
-1.02676175e-10
5.355966632e-09
-1.182122607e-09
-1.122143394e-08
4.484786891e-09
1.516385871e-08
-6.446818808e-09
-1.174634644e-08
9.332165481e-09
1.667675455e-08
-1.255779985e-08
-1.494527537e-08
1.542556369e-08
2.422665451e-08
-1.677422012e-08
-4.144523145e-08
1.289290384e-08
4.696736735e-08
-7.322545571e-10
-4.047071707e-08
-1.472612713e-08
4.303253887e-08
2.507471797e-08
-3.431457911e-08
-3.023445526e-08
3.973272982e-08
2.970552949e-08
-3.320672961e-08
-2.624918703e-08