/*--------------------------------*- C++ -*----------------------------------*\
| =========                 |                                                 |
| \\      /  F ield         | OpenFOAM: The Open Source CFD Toolbox           |
|  \\    /   O peration     | Version:  2.1.x                                 |
|   \\  /    A nd           | Web:      www.OpenFOAM.org                      |
|    \\/     M anipulation  |                                                 |
\*---------------------------------------------------------------------------*/
FoamFile
{
    version     2.0;
    format      ascii;
    class       volVectorField;
    location    "1.9";
    object      Uf;
}
// * * * * * * * * * * * * * * * * * * * * * * * * * * * * * * * * * * * * * //

dimensions      [0 1 -1 0 0 0 0];

internalField   nonuniform List<vector> 
2828
(
(0.2806166126 0 -0.07296517847)
(0.1648650462 0 -0.03703179012)
(0.1664249746 0 -0.03333313874)
(0.2381672747 0 -0.0321485695)
(0.3316175247 0 0.02951926977)
(4.270097049 0 2.819888184)
(4.157852895 0 2.766310048)
(4.01202862 0 2.75713248)
(3.670021928 0 2.514773327)
(1.616812809 0 0.9560688175)
(0.3188051632 0 -0.0119769776)
(0.2616902775 0 0.1517689023)
(0.2100714187 0 0.3940184893)
(0.04807896725 0 0.615512919)
(-0.03658664238 0 0.8029718012)
(-0.222229071 0 1.190967119)
(-0.2551416276 0 1.554197537)
(-0.1463050385 0 0.9109068152)
(-0.1318723111 0 0.9564646895)
(4.265775998 0 2.70438895)
(4.165626006 0 2.695939963)
(4.017640911 0 2.712496206)
(3.856019513 0 2.626934031)
(3.407249634 0 2.308672699)
(2.220446484 0 1.446843161)
(0.9503961143 0 0.7417218648)
(0.4240824436 0 0.8351042763)
(0.2932595601 0 1.097091378)
(0.2595902608 0 1.409633132)
(0.2392154673 0 1.81916012)
(0.2629782877 0 2.207949305)
(0.2550416751 0 2.409472011)
(0.06980244185 0 2.378972884)
(-0.1593701683 0 0.9477312745)
(-0.1553043619 0 0.9396140276)
(-0.1496527994 0 0.9399702579)
(4.161129165 0 2.611349761)
(4.123250747 0 2.603071706)
(3.998604366 0 2.635226019)
(3.856576454 0 2.600777119)
(3.643505622 0 2.473387507)
(3.185997932 0 2.155449272)
(2.413364468 0 1.658968973)
(1.500552251 0 1.286532541)
(0.9079357235 0 1.331502409)
(0.6627457255 0 1.618447481)
(0.5541927598 0 2.006567089)
(0.4857366654 0 2.415868602)
(0.4193098588 0 2.720184156)
(0.3351663717 0 2.86220907)
(0.1713359054 0 2.85910421)
(0.1028219864 0 2.842750455)
(-0.3680209273 0 0.5984647007)
(-0.1968066568 0 0.8913586148)
(-0.1699993607 0 0.9558594772)
(-0.1819079008 0 0.7051447396)
(3.922039201 0 2.460869172)
(4.044646504 0 2.505961199)
(3.959583221 0 2.53989612)
(3.830378695 0 2.536594467)
(3.669089399 0 2.471660482)
(3.414789571 0 2.314860971)
(2.994080685 0 2.046656105)
(2.22142858 0 0.8638132026)
(1.077768227 0 4.108318349)
(1.242644549 0 2.656786546)
(1.004841889 0 2.102358969)
(0.7809820718 0 2.455698865)
(0.5381689632 0 2.717686962)
(0.3208331384 0 2.789762219)
(0.2043243837 0 2.720683379)
(0.1776882302 0 2.566850673)
(0.2269969883 0 2.413461828)
(-0.6322529921 0 0.1307962628)
(-0.4306919943 0 0.5734622681)
(-0.2345410291 0 1.026420803)
(-0.1869579773 0 1.047492838)
(-0.2260152096 0 0.3251079796)
(3.107641726 0 2.0092261)
(3.906052981 0 2.39040027)
(3.893651064 0 2.435275671)
(3.78732735 0 2.449717688)
(3.645781515 0 2.419071398)
(3.455725753 0 2.328342525)
(3.175617792 0 2.169609358)
(2.758169912 0 1.922312292)
(2.386389849 0 2.176689009)
(1.799332061 0 2.002408717)
(1.353453735 0 2.199270525)
(0.9001638247 0 2.323815716)
(0.5421627182 0 2.255565107)
(0.3410606539 0 2.070735362)
(0.1980247947 0 1.846298128)
(-0.124722272 0 1.431028206)
(-1.176898621 0 0.9164271636)
(-1.150143163 0 0.9657647314)
(-0.8716300865 0 -0.8496432358)
(-0.271874073 0 0.2044510519)
(-0.1417383098 0 0.5613708751)
(0.2369168328 0 0.9784052589)
(0.2715711736 0 0.6962445301)
(-0.08981521495 0 0.2027265689)
(1.306491977 0 1.045141686)
(3.551274047 0 2.167196152)
(3.777465706 0 2.310705865)
(3.721645764 0 2.344732239)
(3.599282992 0 2.337475822)
(3.434091475 0 2.285038945)
(3.208069242 0 2.188098045)
(2.892260791 0 2.076414209)
(2.481469543 0 2.037590576)
(1.922170487 0 2.080714311)
(1.272058141 0 2.028869529)
(0.8426317764 0 1.875739626)
(0.558395651 0 1.697033903)
(0.1555716644 0 1.399179437)
(-0.3373788111 0 0.7495742361)
(-0.1794963549 0 0.4458085927)
(-1.520600574 0 1.151803533)
(-1.094024098 0 1.064664196)
(-0.1743650066 0 -1.487572136)
(-0.4569211129 0 -1.455318074)
(-0.08957578212 0 1.301405571)
(-0.09882484525 0 0.7651897094)
(-0.1193405044 0 0.3887082957)
(-0.1426821592 0 0.2297762143)
(-0.04986038227 0 0.3272337475)
(0.05049589804 0 0.4235006671)
(2.456974367 0 1.582814815)
(3.46343385 0 2.091320135)
(3.591268852 0 2.205532788)
(3.518405698 0 2.229196789)
(3.374207721 0 2.208766269)
(3.166739011 0 2.156297142)
(2.870432922 0 2.101609843)
(2.41396257 0 2.059450917)
(1.665219064 0 1.880577306)
(1.14750335 0 1.692816337)
(0.8101273293 0 1.4781227)
(0.4457647759 0 1.1870248)
(-0.07023757696 0 0.4378807946)
(-0.04969936308 0 0.3159414889)
(-0.1457639934 0 0.4893817433)
(-0.3354192579 0 0.8331743692)
(-0.4963491418 0 1.061295023)
(-0.6742939739 0 1.135296619)
(0.0130243696 0 -0.5482697371)
(0.8701811139 0 -0.6385606053)
(-0.2108013834 0 -0.1927771786)
(-0.1196862694 0 0.1528598314)
(-0.1382882433 0 0.3461055332)
(-0.02379094658 0 0.3294254983)
(0.08628566961 0 0.3035708616)
(0.0922770908 0 0.3994512658)
(1.321698592 0 0.957158908)
(2.798322883 0 1.707716948)
(3.284593518 0 1.989695958)
(3.347815124 0 2.084453581)
(3.241441372 0 2.102925973)
(3.013972239 0 2.079553537)
(2.662671238 0 2.039765301)
(2.052484144 0 1.84023478)
(1.409890755 0 1.511724296)
(0.9153041243 0 1.325601229)
(0.02502767873 0 1.138895845)
(-0.250413999 0 0.8595684589)
(-0.1374695456 0 0.6139922157)
(-0.1023239945 0 0.5048715037)
(-0.2057487702 0 0.8460620617)
(-0.2574293196 0 1.152329193)
(-0.2836737883 0 1.287037447)
(-0.3111696259 0 1.250312051)
(-0.4163318986 0 1.025250115)
(-0.2117881256 0 -0.5037898947)
(-0.1889847849 0 -0.3897974602)
(-0.1595124873 0 -0.3433851694)
(-0.1614954993 0 -0.2603462147)
(-0.02149022185 0 -0.156602758)
(0.1345077897 0 0.07553807543)
(0.1774934704 0 0.1908731655)
(0.1994985449 0 0.2565031993)
(0.1798455281 0 0.3127040078)
(0.2338429664 0 0.4757917989)
(1.999530316 0 1.256329346)
(2.750445356 0 1.68921423)
(2.90922496 0 1.835991227)
(2.639862999 0 1.800863837)
(2.263464763 0 1.7438743)
(1.836245405 0 1.632142914)
(1.262774638 0 1.278709549)
(0.7051181279 0 0.8591872346)
(0.6197620377 0 0.8062268264)
(0.4276009469 0 0.7454146434)
(-0.1382423466 0 0.5066256004)
(-0.217347868 0 0.5979626702)
(-0.2244675522 0 0.6434965117)
(-0.182733947 0 0.6932764402)
(0.06301695037 0 0.8473089867)
(0.1890247288 0 0.7780447018)
(0.0710111145 0 0.2405898048)
(0.01972240863 0 0.2319265768)
(0.03397436512 0 -0.7157730138)
(0.175053053 0 -0.6374124668)
(0.272617603 0 -0.4253735056)
(0.2444528953 0 -0.2343355883)
(0.309274817 0 -0.1003241316)
(0.3276353037 0 0.04504211176)
(0.3504444091 0 0.1792465102)
(0.3333686721 0 0.2249427162)
(0.3516874916 0 -0.9119222663)
(0.3132905727 0 1.454523968)
(1.257654662 0 1.009413128)
(2.175965363 0 1.333189849)
(2.180742477 0 1.331761089)
(1.820505897 0 1.218281542)
(1.351532907 0 1.06185511)
(0.6431215276 0 0.6870558088)
(0.1689046122 0 0.371654875)
(-0.01590937535 0 0.4171682113)
(-0.06722375366 0 0.4151096341)
(-0.08109285737 0 0.425231856)
(-0.09942612769 0 0.4983075248)
(-0.1072831616 0 0.5819263127)
(-0.1308176392 0 0.6597243376)
(-0.1473191217 0 0.7015553012)
(-0.1335619856 0 0.7106773635)
(-0.1436926809 0 0.6930155473)
(-0.1349077412 0 0.6268426475)
(-0.09991093778 0 0.399339918)
(-0.3655602288 0 -0.5720352869)
(-0.3734162827 0 -0.6069280233)
(-0.3495544393 0 -0.5829538374)
(-0.4516648702 0 -0.530687387)
(-0.3832282713 0 -0.1346841308)
(-0.2769398685 0 -0.2247190244)
(-0.3206872715 0 -0.1988813157)
(-0.3237553171 0 -0.1890083199)
(-0.02148698646 0 -0.2273681232)
(-0.4219467649 0 -0.1667622865)
(-0.5093228048 0 -0.2095390926)
(1.148583064 0 0.7204751807)
(1.230075798 0 0.7615467576)
(0.2152820594 0 0.09707504095)
(-0.2353143375 0 0.0122563482)
(-0.07768467904 0 0.1490252071)
(-0.01621885909 0 0.3096357325)
(-0.2377995296 0 0.3381549014)
(-0.236587271 0 0.4076409084)
(-0.2363273894 0 0.54062596)
(-0.2720799396 0 0.6719090155)
(-0.2514736325 0 0.7419864955)
(-0.1243957171 0 0.6744301682)
(-0.09225021086 0 0.6481772833)
(-0.1170885031 0 0.6782922542)
(-0.1156086279 0 0.6984226287)
(-0.09847085706 0 0.6894492585)
(-0.09845897006 0 0.6202307966)
(-0.1233124438 0 0.5098044971)
(-0.2311292369 0 -0.4715086787)
(-0.1806417491 0 -0.4762527041)
(-0.0669063098 0 -0.4686708206)
(0.1131049404 0 -0.4690093716)
(-0.2143942234 0 -0.3092732698)
(-0.2150986542 0 -0.2802176455)
(-0.234378263 0 -0.2637263721)
(-0.300128274 0 -0.2681403795)
(-0.3552862865 0 -0.2374383537)
(-0.4188664305 0 -0.2205378731)
(-0.593685163 0 -0.339291113)
(-0.6588409375 0 -0.3175298776)
(-1.379610031 0 0.5435164657)
(-0.9498324189 0 0.6117505467)
(-1.343722016 0 0.4845249656)
(-0.2262062491 0 0.2365984521)
(0.246321707 0 0.3983606995)
(0.04459550357 0 0.6358863396)
(-0.292848445 0 0.8294538675)
(-0.3255445553 0 0.9567026168)
(-0.305692663 0 0.9766718331)
(-0.3058135783 0 0.9019579568)
(-0.2643603418 0 0.7994838357)
(-0.1406149867 0 0.664097119)
(-0.07947922499 0 0.6422494478)
(-0.07496960163 0 0.6632948708)
(-0.07970768817 0 0.6610760035)
(-0.0816760092 0 0.6385896933)
(-0.08435970198 0 0.6007435914)
(-0.1919739818 0 -0.6393595694)
(-0.1791281629 0 -0.5490773878)
(-0.1598183562 0 -0.4593176236)
(-0.1363242918 0 -0.3981327932)
(-0.1388441445 0 -0.3681364408)
(-0.1492430692 0 -0.3565217506)
(-0.1514910389 0 -0.3578861607)
(-0.2273408557 0 -0.3606407791)
(-0.2898203711 0 -0.3323777318)
(-0.3269788233 0 -0.2667952388)
(-0.4043146687 0 -0.2525116612)
(-0.5563717678 0 -0.3654305294)
(-0.6049874232 0 -0.3291042982)
(-2.127388365 0 1.474547658)
(-1.845327357 0 2.119187689)
(-1.429982882 0 1.66348221)
(-1.194681262 0 0.8740954488)
(-0.8858036134 0 0.8571057588)
(-0.6796329505 0 0.7682123698)
(-0.6179212394 0 0.5954369377)
(-0.6369877206 0 0.429524268)
(-0.7108458079 0 0.7138550469)
(-0.5067133701 0 0.8408796237)
(-0.2586319987 0 0.7434896865)
(-0.1239931263 0 0.6617634786)
(-0.06245800784 0 0.6319702654)
(-0.04488068297 0 0.6520586865)
(-0.03862031672 0 0.6695544536)
(-0.03806338836 0 0.6740095196)
(-0.04443578605 0 0.6803867675)
(-0.1780951272 0 -0.8304275825)
(-0.1457441366 0 -0.7311557013)
(-0.116817669 0 -0.6421432301)
(-0.09821269035 0 -0.6089261236)
(-0.08515463198 0 -0.5537745328)
(-0.1111226776 0 -0.4814280941)
(-0.2222292031 0 -0.583783957)
(-0.2736325971 0 -0.6146288329)
(-0.2601802506 0 -0.516690402)
(-0.2657078465 0 -0.3470968298)
(-0.3391271568 0 -0.2984324042)
(-0.4726168708 0 -0.3927280696)
(-0.7024130218 0 -0.3384777688)
(-1.658304451 0 1.40544031)
(-1.696456202 0 2.747517293)
(-1.484121722 0 2.724715076)
(-1.127747115 0 1.803500558)
(-0.5785577077 0 0.8435233278)
(-0.5328257468 0 0.3668049713)
(-0.5800414907 0 0.09839812749)
(-0.6389342545 0 0.1316797615)
(-0.6180994143 0 0.268936592)
(-0.5090017917 0 0.4966587257)
(-0.2647494649 0 0.5616527326)
(-0.1085034336 0 0.5598843421)
(-0.03174721027 0 0.5795725713)
(0.004306078457 0 0.6121185606)
(0.0177832191 0 0.6403191775)
(0.01928538909 0 0.6620949371)
(0.02157829536 0 0.6857741563)
(-0.1259688573 0 -0.8194307313)
(-0.09662554621 0 -0.7538896849)
(-0.06538650586 0 -0.6758552487)
(-0.03301743414 0 -0.607057538)
(-0.06443907624 0 -0.5905547947)
(-0.2183732559 0 -0.7109421026)
(-0.3204469137 0 -0.8645094572)
(-0.323528511 0 -0.9443764359)
(-0.2341515634 0 -0.8678076377)
(-0.1615507793 0 -0.6769740268)
(-0.222302017 0 -0.4810455705)
(-0.3853175447 0 -0.6185632077)
(-0.612159734 0 -0.7472031154)
(-0.2556201276 0 0.8060134228)
(-0.4015412237 0 -0.2585419595)
(-0.4028934651 0 0.4377773419)
(-0.2353727348 0 0.5652243733)
(-0.5080755057 0 0.2621290637)
(-0.5686379411 0 0.1040790401)
(-0.5970478343 0 -0.0212226696)
(-0.6322136774 0 0.000318513151)
(-0.6167270966 0 -0.01458634742)
(-0.502789662 0 0.152986562)
(-0.2157415629 0 0.3191550285)
(-0.03574973518 0 0.4354249242)
(0.03337175938 0 0.504655153)
(0.05829258198 0 0.5468657437)
(0.06928438241 0 0.5810577709)
(0.07259455177 0 0.6102538366)
(0.07432258731 0 0.6423348993)
(-0.03965824267 0 -0.7447082405)
(0.007507986478 0 -0.7901217223)
(0.03056410833 0 -0.7779346464)
(0.01028912712 0 -0.7240179953)
(-0.05586099189 0 -0.6608736127)
(-0.1822063052 0 -0.6691749732)
(-0.3275300559 0 -0.7952717378)
(-0.2346434811 0 -0.9193197036)
(-0.02775974191 0 -0.9423358125)
(0.1476243873 0 -0.8536458056)
(0.2015879201 0 -0.8273349184)
(0.3328864394 0 -0.9660610688)
(0.634116531 0 -0.9716399359)
(0.6373457456 0 -0.4577998646)
(-0.2344387919 0 0.4308722413)
(-0.2007038388 0 0.338306754)
(-0.4560500993 0 0.2033085693)
(-0.5066181909 0 -0.02318963137)
(-0.5095348313 0 -0.1131494264)
(-0.5368039036 0 -0.1745809617)
(-0.7089144298 0 -0.2552381397)
(-0.7134439515 0 -0.261263826)
(-0.6240931851 0 -0.1476708886)
(-0.4209260537 0 0.08975230496)
(-0.0476169236 0 0.241651639)
(0.05898464214 0 0.4185104834)
(0.0954746636 0 0.4751653695)
(0.1058722452 0 0.5312676067)
(0.1037341878 0 0.5756258097)
(0.1038189769 0 0.6171791972)
(0.05958875926 0 -0.5538555165)
(-0.008024656402 0 -1.034735069)
(0.03308831675 0 -1.436357794)
(0.06842321117 0 -1.496662942)
(0.08509724334 0 -1.416660213)
(0.1269245726 0 -1.583279706)
(0.1946269996 0 -1.971622189)
(0.2899848692 0 -2.415710249)
(0.4529213821 0 -2.745059528)
(0.7357802771 0 -1.424938686)
(-0.244224313 0 0.5175612462)
(-0.3989693077 0 0.432964006)
(-0.32505624 0 0.3165513841)
(-0.1757468668 0 0.433770828)
(-0.3595108409 0 0.3963549539)
(-0.5192298093 0 0.002070194602)
(-0.4673760884 0 -0.2132819066)
(-0.5277429207 0 -0.3189475165)
(-0.7059459772 0 -0.4168920057)
(-0.8427821668 0 -0.4524922332)
(-0.8473867821 0 -0.4064774651)
(-0.7778755443 0 -0.3344198394)
(-0.6568407137 0 -0.2344155634)
(-0.4810919715 0 -0.07128375685)
(-0.3154578031 0 0.1583263364)
(-0.1750910344 0 0.2967385335)
(0.08646421451 0 0.371477457)
(0.09425403866 0 0.4946776957)
(0.1071738393 0 0.5477574021)
(0.1257188633 0 0.6063286098)
(0.1232260744 0 -0.4165570777)
(-0.001172524281 0 -0.4081188932)
(-0.09052948557 0 -0.4120252224)
(-0.07973391077 0 -0.5030179432)
(0.1713264632 0 -0.8214300941)
(0.3837747676 0 -0.8915657529)
(0.6225612776 0 -0.8956465341)
(0.9847404205 0 -0.8582956679)
(1.028328877 0 -0.3958743104)
(-0.4161157676 0 0.3546775816)
(-0.7809460369 0 0.3838089835)
(-0.7411900758 0 0.6004759852)
(-0.5708650609 0 0.3618357013)
(-0.5335096873 0 -0.08992693504)
(-0.5017754662 0 -0.3481393443)
(-0.6122339142 0 -0.4351342346)
(-0.7351946436 0 -0.4530234045)
(-0.8018923744 0 -0.4555187282)
(-0.8467661046 0 -0.4477882535)
(-0.8544459253 0 -0.4062314563)
(-0.820213483 0 -0.354837143)
(-0.7185889247 0 -0.2775432444)
(-0.5297538199 0 -0.1449371245)
(-0.2782937976 0 0.09385299851)
(-0.195805323 0 0.2198543962)
(-0.1752112692 0 0.3295593156)
(-0.03531250517 0 0.4130902303)
(0.1230727811 0 0.4725978569)
(0.1464811459 0 0.5384442216)
(0.1415062066 0 -0.4186156908)
(0.08072623955 0 -0.4195297483)
(-0.0409209275 0 -0.497646221)
(-0.1301832172 0 -0.644440844)
(-0.2031177028 0 -0.7547125747)
(-0.05418707421 0 -0.4904048399)
(0.3350664276 0 -0.3180930846)
(0.2948595691 0 -0.2057455834)
(0.5307318795 0 0.107647592)
(-0.5031473122 0 0.2187562387)
(-0.7918623716 0 0.2466472608)
(-0.6415486687 0 0.7308523757)
(-0.5664704409 0 0.05837665928)
(-0.4562959177 0 -0.367237823)
(-0.5378168574 0 -0.4611562845)
(-0.5898783037 0 -0.4340009773)
(-0.6623025248 0 -0.3973394173)
(-0.7523378364 0 -0.4253780783)
(-0.8146395463 0 -0.4261884214)
(-0.8456638229 0 -0.3878621868)
(-0.84876815 0 -0.3571548536)
(-0.7885987713 0 -0.3059921107)
(-0.6141974417 0 -0.2032092937)
(-0.2834821591 0 0.05544365396)
(-0.1888415736 0 0.1879585156)
(-0.1123075649 0 0.2854552192)
(-0.06109467357 0 0.3639154317)
(-0.05214250934 0 0.4339678341)
(0.03363313913 0 0.4775059155)
(0.09720293975 0 -0.2873243104)
(0.03172439866 0 -0.2150032095)
(0.07222977127 0 -0.1643521778)
(-0.3596844377 0 -0.2656518181)
(0.4159695465 0 -0.2196777107)
(-0.1750948669 0 0.1816722163)
(-0.339616193 0 0.4222090345)
(-0.4816967295 0 0.5477367097)
(-0.5294727337 0 0.6063190979)
(-0.4173617847 0 0.095273199)
(-0.1987306558 0 0.3171589705)
(-0.4710364031 0 0.2084847258)
(-0.2845368227 0 -0.1486583299)
(-0.4437812274 0 -0.489386494)
(-0.469459667 0 -0.446815118)
(-0.5055544405 0 -0.3856796222)
(-0.5989937712 0 -0.3399480968)
(-0.7049748807 0 -0.3876609912)
(-0.7588469668 0 -0.3904527557)
(-0.8164446485 0 -0.3634960329)
(-0.8555321583 0 -0.3486921484)
(-0.8434409432 0 -0.3178320969)
(-0.7190917745 0 -0.2447408722)
(-0.3689047746 0 -0.04867678383)
(-0.1760273826 0 0.1678938472)
(-0.1071822902 0 0.2685797428)
(-0.03596411268 0 0.3498891259)
(0.02412966467 0 0.4115578836)
(0.08625943388 0 -0.1637635207)
(-0.006427481676 0 -0.1196975267)
(-0.5257487891 0 -0.222501135)
(0.3992835839 0 -0.1617560386)
(-0.3786488942 0 0.410637771)
(-0.3902508279 0 0.5748473745)
(-0.5170093759 0 0.666404504)
(-0.618340361 0 0.6830434695)
(-0.6668889169 0 0.6731360137)
(0.007796917119 0 0.4053585457)
(-0.2260974211 0 0.03643874194)
(-0.3488902933 0 -0.5488366326)
(-0.4209162898 0 -0.5112892388)
(-0.4235753744 0 -0.4181814363)
(-0.4382899468 0 -0.3464830309)
(-0.5126177713 0 -0.2944714405)
(-0.6352998894 0 -0.3532119629)
(-0.6937593557 0 -0.3565911803)
(-0.7711747938 0 -0.3363580814)
(-0.8390931913 0 -0.3308463377)
(-0.8719407932 0 -0.3160476334)
(-0.8143937401 0 -0.2686955659)
(-0.5271718984 0 -0.135844033)
(-0.1327220417 0 0.1637081557)
(-0.08069254778 0 0.2579874658)
(-0.02315907241 0 0.3429210982)
(0.02941210688 0 0.393771719)
(0.1267267878 0 -0.1683489715)
(0.03807902695 0 -0.1354170722)
(-0.4765610066 0 -0.1805466511)
(-0.1393221518 0 0.2755877401)
(-0.9848171286 0 0.3594480188)
(-0.6115506311 0 0.7209306453)
(-0.5871888012 0 0.7873735118)
(-0.6617851863 0 0.7420474822)
(-0.6606730756 0 0.6930541358)
(-0.56929392 0 -0.02936978484)
(-0.3272396084 0 -0.3670767248)
(-0.4878415043 0 -0.640889887)
(-0.5412468269 0 -0.5493595194)
(-0.5282591547 0 -0.4389335067)
(-0.4771789287 0 -0.3493090452)
(-0.4450359514 0 -0.2873226809)
(-0.5612171558 0 -0.3373803022)
(-0.6228115618 0 -0.3274113537)
(-0.7113750195 0 -0.3076723616)
(-0.8008299628 0 -0.304226802)
(-0.8718055524 0 -0.3013583095)
(-0.8798382086 0 -0.2799507152)
(-0.6952294223 0 -0.1601779112)
(-0.07379008143 0 0.1673392852)
(-0.02741788661 0 0.2512575664)
(0.0135921988 0 0.3168307767)
(0.1696696091 0 -0.4882519972)
(0.4363034626 0 -1.224427721)
(0.1118550407 0 0.9602809641)
(-1.114978647 0 0.1605502651)
(-0.7445093039 0 0.8481941248)
(-0.6746947538 0 0.9018194783)
(-0.7129287168 0 0.7502588548)
(-0.6398910396 0 0.6822271899)
(-0.4034766479 0 -0.4776691758)
(-0.3586460824 0 -0.5468604516)
(-0.5202932617 0 -0.6454096102)
(-0.5541083324 0 -0.5426446187)
(-0.5654009925 0 -0.437828046)
(-0.5421727003 0 -0.3604568548)
(-0.4937324146 0 -0.3168747335)
(-0.5364407796 0 -0.3037548718)
(-0.5667709046 0 -0.2986389938)
(-0.6413787647 0 -0.2878155437)
(-0.7444160796 0 -0.272053185)
(-0.8431342076 0 -0.271791225)
(-0.9148081114 0 -0.2840399494)
(-0.8190373041 0 -0.1593981785)
(0.01909330153 0 0.1765501746)
(0.03763990591 0 0.233417703)
(0.04940553309 0 0.2780751442)
(0.3916741091 0 -0.590774652)
(-0.8577189904 0 0.8200706752)
(-0.292184338 0 -0.04535488938)
(-0.02895017468 0 -0.1017895831)
(-0.2268444654 0 1.063303369)
(-0.5434650818 0 1.002352413)
(-0.7009819319 0 0.7418655749)
(-0.604147957 0 0.5366094494)
(-0.1861247172 0 -0.4985296944)
(-0.3886191239 0 -0.596164423)
(-0.5422311119 0 -0.6102053152)
(-0.5881590573 0 -0.5171349805)
(-0.6153137967 0 -0.4160582358)
(-0.5954523891 0 -0.3302532581)
(-0.5585548387 0 -0.2761949901)
(-0.5724572657 0 -0.228113014)
(-0.6087617533 0 -0.2187966695)
(-0.5849508469 0 -0.2960616203)
(-0.6771160611 0 -0.2429967795)
(-0.7879647994 0 -0.2262998075)
(-0.9214215035 0 -0.2816937983)
(-0.8962069806 0 -0.1481592016)
(0.06977906224 0 0.1527602813)
(0.06624155924 0 0.204075195)
(-1.003553687 0 1.044303448)
(-1.047858618 0 1.018087323)
(-0.7584577788 0 0.9051903948)
(-0.7724871847 0 0.8405490348)
(-0.828326398 0 0.7293972912)
(-0.7096700453 0 0.6084557245)
(-0.5291600177 0 0.3975350735)
(-0.2714537775 0 -0.4228374747)
(-0.5272712051 0 -0.5460657301)
(-0.615019314 0 -0.4809874479)
(-0.6407166319 0 -0.3873656522)
(-0.6212501919 0 -0.2989342094)
(-0.5844426148 0 -0.2324993452)
(-0.5515002511 0 -0.2012896146)
(-0.5727658704 0 -0.1666266421)
(-0.669347849 0 -0.1162379839)
(-0.7330282785 0 -0.2569267266)
(-0.6022647914 0 -0.2269383287)
(-0.7212439956 0 -0.1779885529)
(-0.8972177875 0 -0.2689145876)
(-0.9435213897 0 -0.1331608652)
(-0.1945235749 0 0.08246428202)
(-1.199371329 0 1.057399152)
(-1.074571631 0 0.9752908912)
(-0.9562949316 0 0.7929910308)
(-0.830715469 0 0.7058628049)
(-0.6307827681 0 0.542304071)
(-0.3059494046 0 0.0314517553)
(-0.2593847979 0 -0.4222411854)
(-0.379061792 0 -0.4563801066)
(-0.4560358184 0 -0.4077751915)
(-0.5424870386 0 -0.3646265592)
(-0.6180663611 0 -0.301251557)
(-0.5727296976 0 -0.1679111186)
(-0.5373252916 0 -0.0643073551)
(-0.5020391342 0 -0.1115215375)
(-0.6054469982 0 -0.05265950902)
(-0.9552868534 0 -0.2049959714)
(-0.5459952387 0 -0.1840304284)
(-0.6787768115 0 -0.1597741471)
(-0.8049678072 0 -0.219553493)
(-0.9755836781 0 -0.123407586)
(-0.9745191443 0 0.8475263093)
(-0.7773167096 0 0.6781148225)
(-0.3766563919 0 0.3111224047)
(-0.08248557575 0 -0.2214258309)
(-0.1628846788 0 -0.3505068356)
(-0.2662863434 0 -0.381096186)
(-0.3686742069 0 -0.3790963025)
(-0.5120247143 0 -0.3930057635)
(-0.6963729348 0 -0.3824662885)
(-0.7564327457 0 -0.2705191669)
(-0.7647726277 0 0.4036060727)
(-0.4409385949 0 0.1441048322)
(-0.4630081524 0 0.06307900113)
(-1.041325724 0 -0.3522660804)
(-0.9991953369 0 0.0351973962)
(-0.6655647222 0 -0.1655376595)
(-0.5482469174 0 0.03304648837)
(0.01458918554 0 -0.1351121853)
(0.04675139716 0 -0.1275562824)
(0.07290320113 0 -0.12603519)
(0.05417776495 0 -0.165447237)
(-0.2097899422 0 -0.3377551532)
(-0.3369268724 0 -0.4091756036)
(-0.4840120444 0 -0.4304626132)
(-0.7365802278 0 -0.4669306131)
(-0.885033174 0 -0.3565170164)
(-0.7442227182 0 0.8562401277)
(-0.5564450014 0 0.8054282977)
(-0.5357020544 0 0.124976262)
(-1.1017813 0 -0.5702811352)
(-1.300810233 0 0.02829775178)
(0.3083037888 0 -0.637405212)
(0.4624678125 0 -0.8344210574)
(0.4536837922 0 -0.7459423584)
(-0.1486709273 0 -0.4053662453)
(-0.6573384574 0 -0.5735161446)
(-0.9855850285 0 -0.5139264212)
(-0.4238281131 0 0.9236869265)
(-0.4562671946 0 0.9055482989)
(0.465421877 0 0.09922197496)
(-1.249844826 0 1.724519432)
(-0.326134389 0 -0.02497287046)
(0.09752833971 0 0.0425410224)
(0.2740038548 0 -0.08683497966)
(0.3339728093 0 -0.1677932291)
(0.3281129259 0 -0.192054222)
(0.2787574254 0 -0.1018399052)
(0.2561647659 0 -0.1213424305)
(0.2174225493 0 -0.05627417597)
(0.2354480721 0 -0.09756498982)
(0.2216087681 0 -0.07117545863)
(0.1588152903 0 -0.03213936284)
(0.2042413106 0 -0.06125090144)
(0.1713193367 0 -0.0304489472)
(0.1983375976 0 -0.02577228981)
(0.1316573692 0 0.005439124799)
(0.09955937248 0 0.06342001491)
(0.3006720236 0 -0.002738412078)
(0.1486039491 0 0.04207742507)
(0.2970452068 0 0.02501305408)
(0.1155834172 0 0.1141417888)
(-0.1005241603 0 0.579207043)
(-0.2010725124 0 0.6560407348)
(-0.1792900267 0 1.244615823)
(-0.1337665948 0 0.91111606)
(4.289446717 0 2.747934132)
(4.221470608 0 2.727528482)
(4.227442789 0 2.76158248)
(4.173508444 0 2.736669449)
(4.088507341 0 2.759719417)
(4.07219423 0 2.798829405)
(0.1498566933 0 1.629961428)
(0.07311445057 0 1.808960637)
(-0.2513146293 0 1.367677665)
(-0.002899806161 0 1.938556555)
(-0.110860126 0 2.020117267)
(-0.2872496128 0 1.634334007)
(-0.1678789843 0 2.066825419)
(-0.2108918504 0 2.095607732)
(-0.1528714175 0 0.9332078349)
(-0.1503324254 0 0.9243222712)
(-0.1485225183 0 0.9173170713)
(-0.1453194695 0 0.9088368683)
(0.2325695488 0 2.728945889)
(0.1374756063 0 2.715936364)
(0.01536060006 0 2.377610015)
(0.09226335966 0 2.728243427)
(-0.2372002202 0 0.8100235895)
(-0.1900461639 0 0.8901614682)
(-0.1638723286 0 0.940261841)
(-0.170258702 0 0.9299122137)
(-0.1644980585 0 0.9460064909)
(-0.1571703854 0 0.946067135)
(0.2483895437 0 2.900206297)
(0.2111950194 0 2.883831642)
(0.1340687925 0 2.858876142)
(0.1697755215 0 2.82996269)
(0.1738469118 0 2.797930778)
(-0.7090884602 0 0.01520971156)
(-0.6304098207 0 0.1317533223)
(-0.5365209778 0 0.2978851297)
(0.1150992072 0 1.968583961)
(-0.01343542181 0 1.775067844)
(-0.8400687327 0 -0.4354873151)
(-0.5910383684 0 1.274658229)
(-0.3472328749 0 1.459827432)
(-1.185988912 0 1.031989445)
(-1.14371894 0 1.070590507)
(0.6922502991 0 0.6924146522)
(-0.8322197441 0 -0.9854601844)
(-0.09091607845 0 0.7949180387)
(-0.1400226043 0 0.8645735368)
(-0.8109047615 0 1.044932432)
(-0.8836831422 0 1.099021958)
(-1.068272907 0 1.100676803)
(-0.8870921382 0 1.129401395)
(-0.05154362955 0 -0.5108719355)
(0.3386101954 0 -0.5225744838)
(-0.1454895745 0 -1.345998972)
(-0.4464241708 0 1.179069263)
(-0.5532302355 0 1.141532451)
(-0.7089124037 0 1.138404901)
(-0.1291397325 0 -0.53094835)
(-0.08349973379 0 -0.5687963559)
(-0.05912139006 0 0.6423766301)
(-0.1889437881 0 -0.5308072051)
(-0.1606517448 0 -0.5014121792)
(-0.2076120683 0 -0.4752652173)
(-0.04481712498 0 0.2169944917)
(-0.06006166989 0 0.220462365)
(0.01085171176 0 0.2231949458)
(-0.3212027861 0 -0.5899078182)
(-0.26253878 0 -0.609820515)
(-0.2863936148 0 -0.6625553549)
(0.09175701687 0 -0.6857359321)
(-0.09991936671 0 0.5729399381)
(-0.1096684754 0 0.4628103543)
(-0.10331765 0 0.2805855926)
(-0.1244235491 0 0.4109819781)
(-0.2791209515 0 -0.4978627617)
(-0.343439749 0 -0.5484209081)
(-0.1038948694 0 0.5863055801)
(-0.2289066829 0 -0.532686512)
(-0.2282254659 0 -0.5077539033)
(-0.2417788035 0 -0.4680711746)
(-0.0777196158 0 0.6577728829)
(-0.06649296771 0 0.6555326133)
(-0.1799762397 0 -0.7536088158)
(-0.1663524221 0 -0.7043449226)
(-0.187823857 0 -0.5953882944)
(-0.01157241527 0 0.7000602423)
(-0.01132648321 0 0.7000707203)
(-0.04754941563 0 0.6810934532)
(-0.1620825266 0 -0.8521709616)
(-0.1489024617 0 -0.8106010528)
(-0.1628469539 0 -0.7831791497)
(0.05804798789 0 0.6593677121)
(0.0554556889 0 0.6691205896)
(0.02225992447 0 0.6926836597)
(-0.1083437975 0 -0.7292547652)
(-0.1007339138 0 -0.7231474028)
(-0.112860437 0 -0.7900328075)
(0.09032288452 0 0.6273456662)
(0.08681770058 0 0.643020459)
(0.0714889875 0 0.6548350937)
(-0.08242950777 0 -0.5677207444)
(-0.09671716048 0 -0.5636176154)
(-0.01505463967 0 -0.775918225)
(0.1206758809 0 0.6047905978)
(0.1221569626 0 0.62144494)
(0.1006456004 0 0.634473047)
(0.1844376224 0 -0.4423505925)
(0.04201627276 0 -0.6764190245)
(0.1324172541 0 0.5831059674)
(0.12864352 0 0.6180922288)
(0.1609841114 0 -0.4248308032)
(0.1718489503 0 -0.411332163)
(0.1127637604 0 0.4924461785)
(0.156112944 0 -0.4215086752)
(0.1173365527 0 -0.3649706393)
(0.09534503008 0 -0.3370984062)
(0.1147753642 0 -0.4165732646)
(0.002264988119 0 0.4199101656)
(0.01341237756 0 0.4495883771)
(-0.0222131924 0 0.4618196319)
(0.09749687542 0 -0.2331176406)
(0.07240654154 0 -0.2084139454)
(0.05983969445 0 -0.2510805525)
(0.03459204841 0 0.4025101429)
(0.04634958913 0 0.4136653911)
(0.04003404847 0 0.4316090546)
(0.1235586731 0 -0.1836920459)
(0.09656182045 0 -0.194333759)
(0.02887069067 0 0.3707558528)
(0.1299410814 0 -0.1777450216)
(0.1236471909 0 -0.167298203)
(0.08877072527 0 -0.1518172966)
(0.03098934335 0 0.3022725646)
(0.0435949683 0 0.3180631709)
(0.03316341441 0 0.3406116046)
(0.1869597096 0 -0.4531412225)
(0.318189712 0 -0.5774127645)
(0.2815029038 0 -0.4463974285)
(0.1735775965 0 -0.583027205)
(0.05298453035 0 0.2186528763)
(0.06847066815 0 0.2435982317)
(0.04005854919 0 0.2617409316)
(0.4184290334 0 -0.5849526031)
(0.4172601019 0 -0.5444475165)
(0.08154996776 0 0.1785212217)
(0.07571686036 0 0.223187735)
(0.6148734312 0 -0.4425588821)
(-0.9582892696 0 1.044269055)
(-0.2989849143 0 0.04216389448)
(-0.0420871332 0 0.1307719163)
(0.6370131844 0 0.5599113544)
(-1.154810571 0 1.048728335)
(0.04091249236 0 -0.4576852664)
(-1.015124653 0 0.8204282225)
(-1.004027384 0 0.8296177165)
(-0.6112354294 0 -0.1039568943)
(-0.9723990915 0 -0.2616630712)
(-0.9807793195 0 -0.2624660707)
(-0.9817465033 0 -0.1191466413)
(-0.6763463734 0 0.02958212018)
(-1.021688254 0 0.8574244295)
(0.340254172 0 -0.0664149368)
(0.03244433763 0 -0.2059273356)
(-0.9033628124 0 0.789778269)
(-0.6563105898 0 -0.1665922419)
(-0.6568545017 0 -0.06870681456)
(-0.6562842124 0 -0.05863360596)
(0.0350920985 0 -0.1229685297)
(0.1243325925 0 -0.2935142998)
(0.1403970224 0 -0.3224800452)
(0.06496123802 0 -0.1254255811)
(0.1587022362 0 -0.3639293502)
(0.1782716813 0 -0.4161595783)
(0.07859017383 0 -0.1328176246)
(-0.3830483339 0 -0.3081415317)
(-0.8392204259 0 -0.6394400896)
(-0.8148597036 0 -0.5044713377)
(-1.059128086 0 -0.6257013522)
(-1.293714401 0 -0.1723078586)
(-1.298128261 0 -0.09369427332)
(0.3062969999 0 -0.5764486438)
(0.269623131 0 -0.5737459324)
(0.3776546316 0 -0.7382881181)
(0.6316536016 0 -0.8536742672)
(0.5172172068 0 -0.8620513792)
(0.6642493839 0 -0.8029007378)
(0.6356339191 0 -0.6848493665)
(0.2552170823 0 -0.5516808317)
(0.15954365 0 -0.27923053)
(0.1568073253 0 -0.269742442)
(-0.4460566491 0 -0.4855347577)
(0.1730956426 0 -0.2607134513)
(0.1801439196 0 -0.2350485158)
(-0.8462807925 0 -0.6138195984)
(0.1732082388 0 -0.2603719634)
(0.1645112191 0 -0.3053116875)
(-0.9166089533 0 0.1840270367)
(0.08328965833 0 0.2270347089)
(-0.4839036008 0 1.017927607)
(0.5786277031 0 0.06315891913)
(4.02174932 0 2.73901613)
(3.944828675 0 2.694228158)
(3.913713193 0 2.689191924)
(3.820603134 0 2.609834735)
(3.511456848 0 2.383490963)
(2.75430911 0 1.807699197)
(2.933734157 0 1.958684793)
(2.000724588 0 1.257801263)
(0.6478520178 0 0.2019284426)
(1.120026052 0 0.6198925924)
(0.5769900665 0 0.3262404107)
(0.2757735311 0 0.05072141296)
(0.3661063001 0 0.3594277625)
(0.2847657103 0 0.5101212191)
(0.2384803778 0 0.2835900048)
(0.2433113485 0 0.6498347043)