/*--------------------------------*- C++ -*----------------------------------*\
| =========                 |                                                 |
| \\      /  F ield         | OpenFOAM: The Open Source CFD Toolbox           |
|  \\    /   O peration     | Version:  2.1.x                                 |
|   \\  /    A nd           | Web:      www.OpenFOAM.org                      |
|    \\/     M anipulation  |                                                 |
\*---------------------------------------------------------------------------*/
FoamFile
{
    version     2.0;
    format      ascii;
    class       scalarField;
    location    "1.1";
    object      age;
}
// * * * * * * * * * * * * * * * * * * * * * * * * * * * * * * * * * * * * * //


28
(
0.005403350493
0.005222550198
0.005014516441
0.004836783605
0.004621433229
0.004439834355
0.004208130991
0.004018498337
0.003822642893
0.003623928028
0.003426854251
0.003220192746
0.003009944517
0.002809669064
0.002625737216
0.002423209127
0.002230405439
0.002014163803
0.001830357751
0.00161880732
0.00142566556
0.001215151299
0.001039760903
0.0008280618721
0.0006204828327
0.0004130177395
0.0002103140615
3.248093613e-05
)


// ************************************************************************* //
