/*--------------------------------*- C++ -*----------------------------------*\
| =========                 |                                                 |
| \\      /  F ield         | OpenFOAM: The Open Source CFD Toolbox           |
|  \\    /   O peration     | Version:  2.1.x                                 |
|   \\  /    A nd           | Web:      www.OpenFOAM.org                      |
|    \\/     M anipulation  |                                                 |
\*---------------------------------------------------------------------------*/
FoamFile
{
    version     2.0;
    format      ascii;
    class       scalarField;
    location    "1.1";
    object      d;
}
// * * * * * * * * * * * * * * * * * * * * * * * * * * * * * * * * * * * * * //


28
(
0.0005069470669
0.0005011088932
0.0005687140281
0.0009388304805
0.0005353165896
0.0005010410333
0.0006360285758
0.0005626921283
0.0007118277524
0.0005438889723
0.0005998829263
0.0009772714679
0.0007834608724
0.0005114171876
0.0007143817643
0.0005002233594
0.0005179803261
0.0005620569323
0.0005001309072
0.0006150182863
0.000509846574
0.0005031504715
0.0005083206113
0.0005279728645
0.0005113671414
0.000520515414
0.0005081106647
0.0005831727272
)


// ************************************************************************* //
