/*--------------------------------*- C++ -*----------------------------------*\
| =========                 |                                                 |
| \\      /  F ield         | OpenFOAM: The Open Source CFD Toolbox           |
|  \\    /   O peration     | Version:  2.1.x                                 |
|   \\  /    A nd           | Web:      www.OpenFOAM.org                      |
|    \\/     M anipulation  |                                                 |
\*---------------------------------------------------------------------------*/
FoamFile
{
    version     2.0;
    format      ascii;
    class       scalarField;
    location    "1.1";
    object      mass0;
}
// * * * * * * * * * * * * * * * * * * * * * * * * * * * * * * * * * * * * * //


28
(
6.821603399e-08
6.588627478e-08
9.63120096e-08
4.33271543e-07
8.032130017e-08
6.585951154e-08
1.347188935e-07
9.328485514e-08
1.888527749e-07
8.424213836e-08
1.130311448e-07
4.887021848e-07
2.517970036e-07
7.003652366e-08
1.908928677e-07
6.553759919e-08
7.276766118e-08
9.296929731e-08
6.550126755e-08
1.218043248e-07
6.939323568e-08
6.669484604e-08
6.877202013e-08
7.706078508e-08
7.001596479e-08
7.384131236e-08
6.868684267e-08
1.038461114e-07
)


// ************************************************************************* //
