/*--------------------------------*- C++ -*----------------------------------*\
| =========                 |                                                 |
| \\      /  F ield         | OpenFOAM: The Open Source CFD Toolbox           |
|  \\    /   O peration     | Version:  2.1.x                                 |
|   \\  /    A nd           | Web:      www.OpenFOAM.org                      |
|    \\/     M anipulation  |                                                 |
\*---------------------------------------------------------------------------*/
FoamFile
{
    version     2.0;
    format      ascii;
    class       scalarField;
    location    "1.1";
    object      nParticle;
}
// * * * * * * * * * * * * * * * * * * * * * * * * * * * * * * * * * * * * * //


28
(
1.900415992
2.077360972
1.562391048
0.2914451169
1.810892273
1.984652235
1.053465289
1.605914923
0.7298014239
1.635151076
1.220969466
0.2949752954
0.5798690699
1.798239427
0.7194214089
2.032001375
2.002971463
1.615160396
1.898026461
1.233319344
1.754660912
2.373806353
1.743341175
1.917761155
2.057178178
1.947941345
1.910795237
1.216462082
)


// ************************************************************************* //
