/*--------------------------------*- C++ -*----------------------------------*\
| =========                 |                                                 |
| \\      /  F ield         | OpenFOAM: The Open Source CFD Toolbox           |
|  \\    /   O peration     | Version:  2.1.x                                 |
|   \\  /    A nd           | Web:      www.OpenFOAM.org                      |
|    \\/     M anipulation  |                                                 |
\*---------------------------------------------------------------------------*/
FoamFile
{
    version     2.0;
    format      ascii;
    class       Cloud<basicReactingParcel>;
    location    "1.1";
    object      positions;
}
// * * * * * * * * * * * * * * * * * * * * * * * * * * * * * * * * * * * * * //

28
(
(0.01030608933 0.001977528553 0.004933300589) 41625
(0.008321599935 0.001999439194 0.007178429811) 53637
(0.01277833162 0.001061351485 0.01137537363) 76793
(0.01164799765 0.00192514718 0.01604127118) 106325
(0.006520023208 0.004356642385 0.01681852577) 111741
(0.01714425777 0.004308365042 0.01660325399) 107286
(0.01235006347 0.003400638559 0.01231628275) 82473
(0.01238779628 0.003998175478 0.01305599559) 87569
(0.007170313678 0.005861212779 0.01257325241) 88111
(0.01360495438 0.005235137274 0.01198286632) 83070
(0.01501016347 0.006081349858 0.01322705874) 88372
(0.01203114505 0.006346666025 0.01297871478) 88352
(0.00856013558 0.008006588577 0.01105726585) 7605
(0.01237085921 0.007601291945 0.01237502641) 83843
(0.01367355426 0.009035927795 0.009024624536) 64781
(0.0101884715 0.009134334004 0.01237523066) 84222
(0.01304157119 0.009418219129 0.01153737547) 79344
(0.01139592733 0.01007500648 0.01274644348) 89322
(0.01231534218 0.0105306136 0.01225232075) 84627
(0.0102870748 0.01213656235 0.01057741511) 75204
(0.0111796333 0.01194894536 0.01223303299) 85011
(0.01304597587 0.01273890591 0.01402007738) 95022
(0.01211629544 0.01303723848 0.011617554) 80317
(0.01371180121 0.01387013562 0.01289163714) 90322
(0.01261599124 0.01430321741 0.01325289816) 90513
(0.01281479819 0.01484228713 0.01219283051) 85615
(0.01270250632 0.01540786546 0.01242090614) 85809
(0.01249855985 0.01591839067 0.01255322357) 90701
)


// ************************************************************************* //
