/*--------------------------------*- C++ -*----------------------------------*\
| =========                 |                                                 |
| \\      /  F ield         | OpenFOAM: The Open Source CFD Toolbox           |
|  \\    /   O peration     | Version:  2.1.x                                 |
|   \\  /    A nd           | Web:      www.OpenFOAM.org                      |
|    \\/     M anipulation  |                                                 |
\*---------------------------------------------------------------------------*/
FoamFile
{
    version     2.0;
    format      ascii;
    class       vectorField;
    location    "1.1";
    object      U;
}
// * * * * * * * * * * * * * * * * * * * * * * * * * * * * * * * * * * * * * //


28
(
(-0.3997252434 -2.581318408 -1.37863442)
(-0.7878521212 -2.665434354 -1.003400894)
(0.05482774664 -2.967314245 -0.2215369165)
(-0.1751445804 -2.917122028 0.727972704)
(-1.278065199 -2.511140089 0.922973062)
(1.032427472 -2.620857794 0.9121612872)
(-0.03531939477 -2.988620964 -0.04327685796)
(-0.02764361161 -2.976641762 0.1369805354)
(-1.384853412 -2.653255309 0.01903373755)
(0.3020220957 -2.960240209 -0.1413504482)
(0.7268187742 -2.888827503 0.2105201313)
(-0.1450740021 -3.002845005 0.1481248502)
(-1.302893639 -2.658234845 -0.4771050343)
(-0.04559292845 -2.979009678 -0.04412170527)
(0.4448776204 -2.652956355 -1.317465083)
(-0.9470519731 -2.824899599 -0.05111901254)
(0.2412837322 -2.943393333 -0.4288737011)
(-0.5453857044 -2.936792731 0.1217372331)
(-0.1003351761 -2.980921268 -0.134578328)
(-1.362135408 -2.386132223 -1.183420456)
(-0.9222965428 -2.83682961 -0.1864805811)
(0.4476800293 -2.680054357 1.246407263)
(-0.367901046 -2.845954401 -0.8461009917)
(1.460019792 -2.57031871 0.4718578955)
(0.1865930496 -2.732746106 1.211173914)
(0.761270493 -2.801803777 -0.7428221594)
(0.9622273657 -2.814727391 -0.3758217382)
(-0.04433268395 -2.512475415 1.638399792)
)


// ************************************************************************* //
