/*--------------------------------*- C++ -*----------------------------------*\
| =========                 |                                                 |
| \\      /  F ield         | OpenFOAM: The Open Source CFD Toolbox           |
|  \\    /   O peration     | Version:  2.1.x                                 |
|   \\  /    A nd           | Web:      www.OpenFOAM.org                      |
|    \\/     M anipulation  |                                                 |
\*---------------------------------------------------------------------------*/
FoamFile
{
    version     2.0;
    format      ascii;
    class       surfaceScalarField;
    location    "1.7";
    object      phi;
}
// * * * * * * * * * * * * * * * * * * * * * * * * * * * * * * * * * * * * * //

dimensions      [1 1 -1 0 0 0 0];

internalField   nonuniform List<scalar> 
5536
(
3.690004465e-14
-5.142434897e-12
2.08292493e-12
-3.707423899e-12
-8.472938088e-12
5.671518361e-12
-9.842486161e-12
-4.450865084e-11
1.701519378e-11
-2.48524299e-11
-7.533108648e-11
3.255226684e-11
-4.554444806e-11
-1.27926488e-10
-1.408678622e-13
-8.937771977e-14
8.842413413e-14
-1.98391833e-13
-5.070972552e-14
1.612497856e-14
7.59864502e-15
-2.066880592e-14
-1.760253757e-15
2.835766988e-13
-4.349598234e-17
-1.090577963e-14
4.431566425e-14
1.221522617e-12
-1.896691593e-13
-1.411602349e-13
5.080452245e-13
4.377352634e-12
-1.06933649e-12
-2.395026426e-12
2.880185644e-12
3.290271971e-11
-6.828567268e-12
-2.253173389e-11
1.130459363e-11
5.328801391e-11
-1.569041976e-11
-3.327737676e-11
2.052668429e-11
7.674924991e-11
-2.736006534e-11
-5.173604644e-11
3.865858588e-11
1.091880883e-10
-5.464712048e-11
-7.497437144e-11
7.286077491e-11
1.572517003e-10
-1.048680368e-10
1.733292139e-10
-9.985863111e-11
-2.369629972e-10
-1.938354499e-10
2.801843873e-10
-4.730923065e-15
-6.028216257e-15
1.871033674e-14
7.38360378e-15
-7.597020743e-16
-1.381276908e-14
8.744945741e-14
4.058300565e-14
-5.190436229e-14
-7.011610117e-14
2.035584788e-13
1.214363975e-13
-1.642927834e-13
-1.52593188e-13
2.860436237e-14
1.568942129e-14
-4.222427853e-14
-9.907784542e-16
5.299801596e-16
1.647493345e-16
-6.312307258e-16
1.441679645e-16
7.844268823e-15
-1.137646942e-15
-9.620597391e-16
8.20339601e-15
1.808941152e-12
-6.656389862e-14
-1.725964922e-12
2.087264762e-12
1.37522141e-11
-4.040146099e-12
-7.031656662e-12
4.943661411e-12
1.703562488e-11
-5.626334699e-12
-6.503544017e-12
7.018208738e-12
3.018789402e-11
-1.009117537e-11
-1.422304285e-11
1.605362177e-11
4.96117079e-11
-2.600114947e-11
-3.079155904e-11
4.09160058e-11
7.535514647e-11
-6.372962779e-11
-5.402152836e-11
1.021213385e-10
1.464030145e-10
-1.648879001e-10
-1.286913254e-10
2.585666825e-10
3.448230934e-10
-3.804033677e-10
-4.250137986e-10
5.832662652e-10
-5.325624456e-09
2.94992313e-09
8.983230151e-12
1.098351326e-13
-2.491233235e-13
-4.750530203e-14
8.189651568e-15
8.09834292e-15
-2.633215383e-14
-5.027478963e-23
1.428556088e-15
-2.426074975e-23
-2.515004274e-21
5.149342912e-15
2.57598896e-14
-2.341326448e-14
2.171117252e-16
2.774854127e-15
2.293559448e-14
-1.862827021e-16
9.037124061e-17
-2.147657931e-14
6.317450764e-14
1.87469663e-14
-7.864319654e-14
-1.407933476e-15
1.114042217e-15
-1.009193457e-16
-1.786444854e-15
7.289585441e-16
9.397813313e-16
-1.123430215e-15
-1.247319188e-15
1.774648551e-15
1.540555741e-12
-8.240870108e-15
-8.085129474e-13
2.194059691e-12
2.64762282e-12
-1.574614596e-12
-5.082212809e-13
1.036022835e-12
1.646173813e-12
-7.484979095e-13
-2.295625684e-13
7.272682886e-13
5.009889325e-12
-1.190310342e-12
-1.26775828e-12
3.04607791e-12
1.77341893e-11
-8.360009913e-12
-9.823461531e-12
1.975759692e-11
4.157781266e-11
-3.998751616e-11
-4.594127265e-11
7.797796824e-11
1.688389803e-10
-1.64743086e-10
-3.01585893e-10
3.449788119e-10
6.37645197e-10
-6.226260383e-10
-7.884119702e-10
2.440405659e-10
9.18382659e-09
3.556705739e-09
-2.59045841e-09
1.875225468e-09
3.689156511e-08
-5.439857712e-09
1.768036041e-08
-1.566762495e-08
-1.161287572e-08
-3.80566946e-09
2.067233092e-19
-1.998295165e-19
-3.751851713e-19
6.874855325e-19
-4.256377192e-13
-5.912345806e-13
1.329410406e-13
9.070025506e-13
-1.0791754e-14
-8.832630867e-13
1.684024362e-13
7.695224595e-13
-5.895430889e-21
-6.893220228e-13
1.340883075e-13
5.338876233e-13
-2.454683337e-15
-3.01097665e-13
3.418322257e-14
1.226684502e-13
-1.067247097e-13
-5.135419557e-14
3.534971193e-14
1.171970694e-13
7.601120566e-14
-6.032046898e-14
-8.408582217e-15
-4.302883468e-16
3.291278642e-15
-6.893940983e-16
-6.750148033e-15
2.226053936e-15
1.723860428e-15
-3.781435321e-15
-2.315285772e-15
3.907823443e-15
8.323564437e-14
-4.118630913e-15
-3.397156566e-15
3.079596008e-14
2.384478801e-14
-1.766873834e-14
-9.813427676e-16
1.008597136e-14
1.169575174e-14
-6.447515545e-15
-3.498975917e-16
5.713941832e-15
2.497527954e-13
-1.70894864e-14
-4.308950911e-14
2.127526892e-13
6.570380922e-12
-1.947394188e-12
-1.02497009e-11
1.253312461e-11
1.019255841e-10
-6.26704088e-11
-2.639511818e-10
2.093552898e-10
4.702750757e-10
-4.2780064e-10
-8.279384256e-10
6.620624458e-10
8.13229066e-10
-8.639264834e-10
-1.011648296e-09
1.031640531e-09
1.131651185e-09
-1.19611004e-09
-8.929495364e-10
1.389053058e-09
1.122062257e-09
-1.814350621e-09
-1.21141552e-09
2.008887845e-09
1.874738102e-09
-2.206430036e-09
-1.800805247e-09
2.309511818e-09
-1.373637293e-09
-2.025301996e-09
1.060928947e-16
1.076078776e-16
-9.379203821e-17
-8.30084782e-18
8.012195822e-19
1.176930115e-18
-1.794543278e-18
2.836583748e-19
-1.119183872e-14
-3.685389752e-15
5.186970948e-16
1.449122888e-14
-7.522718636e-14
-5.209601779e-14
3.425430778e-14
9.367986067e-14
-1.20417778e-13
-1.395957279e-13
7.665355237e-14
1.846365045e-13
-1.148756512e-13
-2.168646683e-13
1.04638792e-13
2.273704756e-13
-8.195670764e-14
-2.175968742e-13
9.932118944e-14
1.997858592e-13
-6.377649885e-14
-1.804548824e-13
9.351669441e-14
1.507657497e-13
-1.687727281e-14
-1.139537389e-13
5.822750862e-14
7.167533507e-14
-6.749665961e-16
-4.181391563e-14
1.46049656e-14
2.615745563e-14
9.263628623e-16
-1.667243724e-14
5.090048772e-15
8.575638712e-15
7.140833724e-16
-3.574542029e-15
5.933739139e-16
1.607539052e-15
1.397109386e-16
-8.108630076e-16
1.548020489e-16
4.683520549e-16
4.351543829e-16
-3.699500085e-16
5.256669378e-15
2.147379873e-14
4.243765085e-11
-4.837122933e-12
-1.533684506e-10
1.205784331e-10
6.724094591e-10
-4.036454381e-10
-1.386394304e-09
9.273303453e-10
1.971556538e-09
-1.653171917e-09
-3.58960912e-09
2.413715758e-09
2.395255015e-09
-2.92626206e-09
-5.11105128e-09
2.872955454e-09
1.191016157e-09
-2.198696987e-09
-3.1050762e-09
1.40665548e-09
8.657782827e-10
-1.033172118e-09
-8.385125348e-10
1.101544718e-09
1.438922757e-09
-1.442689418e-09
-1.078960836e-09
1.905963362e-09
1.590019711e-09
-2.246184629e-09
-1.426481985e-09
2.12270551e-09
-6.756850558e-10
-1.513349123e-09
3.457309294e-13
-4.577951849e-13
-2.08404583e-14
9.437586628e-17
9.153557423e-17
-7.993848663e-17
-1.470145644e-17
2.241087733e-18
3.098085336e-18
-3.507069018e-18
-1.336778654e-19
4.784333771e-17
-4.648496899e-19
-7.167101008e-18
2.206035811e-15
-1.176446555e-14
-1.69254608e-13
-8.141498918e-15
2.992500781e-12
-3.606677555e-14
-2.267576727e-11
-4.633308938e-13
9.19467841e-11
-6.412657696e-14
-2.382720773e-10
-3.798654336e-12
4.601725796e-10
-8.022479786e-14
-7.450747833e-10
-7.949979503e-12
1.093727083e-09
-8.321657731e-14
-1.370514225e-09
-6.158558878e-09
3.187039208e-09
-8.545443608e-14
-4.780361183e-09
-3.83827109e-09
5.048021377e-09
-1.467584114e-13
-4.109235201e-09
-2.645024345e-10
2.457341789e-09
-3.662465447e-13
-1.12824605e-09
1.143912399e-10
4.060238668e-10
-2.218641824e-13
-1.141557456e-10
1.159467566e-11
2.013620216e-11
-2.085395956e-14
-2.107428808e-12
1.20987244e-12
1.814746432e-12
-1.111671819e-13
-1.214728928e-11
1.645803969e-11
3.801178332e-11
3.78115508e-10
-1.638488123e-10
-9.533533709e-10
5.423267298e-10
1.960884492e-09
-1.164632613e-09
-2.210475328e-09
2.010817928e-09
4.241404556e-09
-3.069313019e-09
-3.865782027e-09
4.342006357e-09
6.648490751e-09
-5.774841687e-09
-6.137682515e-09
7.131206917e-09
6.158871688e-09
-7.816922462e-09
-7.456812906e-09
6.935866989e-09
1.533481354e-09
-4.324633805e-09
-3.08797712e-09
1.922462223e-09
8.392171273e-10
-1.110413157e-09
-7.422709623e-10
1.208286673e-09
1.189815062e-09
-1.540790683e-09
-9.631389624e-10
1.699656139e-09
6.874755147e-10
-6.032695079e-10
9.30529723e-10
-1.434553399e-09
-6.041217816e-13
-1.2946515e-12
2.238465422e-13
2.810781613e-13
-1.086503519e-13
-8.759926319e-15
6.004076814e-17
6.79445792e-17
-3.633750582e-17
-1.992555383e-17
5.282908047e-18
7.019308322e-18
-8.699726443e-18
7.706760826e-19
8.979496771e-21
-7.130464884e-18
3.453146031e-18
3.076383338e-17
-1.469825522e-15
-5.146611586e-16
1.745881167e-15
1.492284849e-14
-1.743817284e-13
-2.344282171e-13
2.170116634e-13
2.046218904e-12
-2.251044341e-12
-1.104529025e-11
3.886356496e-12
3.997231608e-11
-8.172396546e-12
-1.04125049e-10
2.14589919e-11
1.635295546e-10
1.955647225e-08
-8.398875394e-10
-2.191251736e-08
-7.360444407e-11
6.302487379e-09
-2.092718341e-09
-3.375291696e-09
3.734376511e-09
3.413601147e-09
-5.254928975e-09
-2.107691337e-09
6.407254928e-09
1.147358277e-09
-7.434779959e-09
-1.282736074e-09
8.598007047e-09
-9.1892305e-11
-9.962486118e-09
-5.064541239e-10
1.141615033e-08
-6.534647695e-10
-1.322193405e-08
5.423869299e-10
1.633623587e-08
-7.849794109e-10
-2.010437221e-08
-1.179829588e-09
1.781128754e-08
1.801912017e-09
-8.277485821e-09
-2.758335486e-09
3.036089892e-09
2.33256538e-09
-2.109311472e-09
-2.365151053e-09
2.191309018e-09
3.113204215e-09
-2.523401965e-09
-2.368564584e-09
3.069806768e-09
4.697886614e-09
-3.88127741e-09
-3.280233859e-09
4.9905393e-09
6.592020513e-09
-6.301041919e-09
-4.890263748e-09
7.344441989e-09
4.257070325e-09
-7.089725172e-09
-4.138650643e-09
4.828794623e-09
7.686185244e-10
-2.22333266e-09
-8.139892213e-10
1.177124371e-09
7.6372782e-10
-1.131895242e-09
-5.90747882e-10
1.245835554e-09
5.165766567e-10
-1.125617335e-09
-4.341453881e-10
7.81448528e-10
2.157862828e-10
-1.947693907e-10
3.505730871e-10
-4.817769383e-10
2.010854669e-13
6.055637684e-13
-3.589038272e-14
-2.440891818e-13
3.961374094e-14
6.592442456e-14
-8.131095144e-15
-3.06921587e-15
1.749299093e-17
2.081179352e-17
-6.375310534e-18
-1.136184899e-17
4.755020397e-18
8.844424196e-18
-1.450740585e-18
-6.877596055e-18
-6.343128366e-18
5.048284259e-18
2.975424972e-18
1.330733127e-17
-5.369312298e-15
-1.318797671e-15
2.34004037e-14
4.531543096e-14
-6.426709153e-13
-6.703125242e-13
1.972740474e-12
5.200296302e-12
-1.027154401e-11
-2.414268914e-11
2.354790894e-11
7.438611019e-11
-6.296620796e-11
-1.650295292e-10
1.272290603e-10
2.065470203e-10
1.113635536e-08
3.654380567e-09
-3.842005764e-09
-1.059339585e-09
7.934275862e-10
3.834741178e-10
-4.403901454e-10
-9.343536872e-11
1.649499959e-10
-7.614413366e-12
-1.166071495e-10
1.564392972e-10
8.851752232e-10
-5.76405262e-10
-6.097978913e-10
1.511127451e-09
2.233197725e-09
-3.265809082e-09
-1.861412735e-09
6.07826375e-09
3.68592269e-09
-9.648134837e-09
-4.464435195e-09
1.179203294e-08
5.330689784e-09
-1.132319995e-08
-6.896003681e-09
9.36212221e-09
4.248350175e-09
-7.090387322e-09
-5.195186365e-09
4.765587244e-09
2.218579237e-09
-3.020230251e-09
-1.945260937e-09
2.105454642e-09
1.755030715e-09
-1.786513652e-09
-1.320294508e-09
1.818382114e-09
2.233895106e-09
-2.079992891e-09
-1.569785989e-09
2.538063754e-09
3.322173961e-09
-3.187089076e-09
-2.18498163e-09
3.924524069e-09
3.198601126e-09
-4.331704275e-09
-2.107097373e-09
3.700731908e-09
7.351112039e-10
-2.16153884e-09
-5.183420489e-10
1.106437296e-09
4.364868059e-10
-8.652976117e-10
-2.978780303e-10
9.082494937e-10
3.601916035e-10
-8.929201828e-10
-2.89556284e-10
7.465553278e-10
1.927449856e-10
-5.399931526e-10
-2.310362611e-10
3.622519145e-10
-1.276795886e-10
-2.830783941e-10
-2.195115069e-15
-7.69680164e-14
9.951859655e-15
4.966644896e-15
-5.610455644e-16
-6.125312385e-15
1.214234637e-15
2.325771105e-15
-2.091198255e-16
-3.737468469e-16
4.141365574e-18
4.728311482e-18
-4.371921351e-18
-9.538789812e-19
3.817087696e-19
6.544831392e-19
-7.820841537e-20
-6.294873726e-19
-1.736537702e-18
6.83193995e-19
8.985347727e-19
1.952018168e-18
-2.091402211e-13
-2.746438024e-14
1.213583223e-12
7.886594384e-13
-8.211599645e-12
-6.358311002e-12
3.058196788e-11
2.564313433e-11
-5.712338873e-11
-6.776928879e-11
1.276086044e-10
1.358382647e-10
2.177125461e-09
-1.049273716e-10
-1.148677324e-08
-3.532415903e-09
2.08072125e-09
1.115356917e-09
-1.444997453e-09
-3.877305474e-10
3.040314795e-10
1.426611803e-10
-2.053107471e-10
-3.232505845e-11
8.10537615e-11
-3.71519886e-12
-6.646000548e-11
7.828231579e-11
3.921065997e-10
-2.625825811e-10
-3.005431932e-10
5.92341494e-10
1.134799484e-09
-1.149794093e-09
-7.686288922e-10
2.099765602e-09
2.981101617e-09
-3.680542086e-09
-1.86608544e-09
6.076689851e-09
5.906533097e-09
-9.077683009e-09
-4.040607133e-09
1.161200285e-08
5.487358283e-09
-1.168704093e-08
-4.588818626e-09
8.356912343e-09
1.794795261e-09
-4.232059027e-09
-1.714578826e-09
2.040004232e-09
1.108068426e-09
-1.429931399e-09
-1.128318962e-09
1.408090891e-09
1.197999831e-09
-1.515097663e-09
-1.034701077e-09
1.626181119e-09
1.428269755e-09
-1.759524609e-09
-9.220564878e-10
1.910070959e-09
1.198602608e-09
-1.898530797e-09
-5.500663064e-10
1.473475606e-09
2.776813003e-10
-8.594432874e-10
-1.110638854e-10
5.517407485e-10
1.810236912e-10
-5.407443243e-10
-9.365796459e-11
6.36606442e-10
2.124916781e-10
-7.490253383e-10
-1.315870952e-10
8.528033777e-10
2.60948772e-10
-9.259324858e-10
-2.167089973e-10
9.167469001e-10
1.086552191e-10
-2.324612562e-10
5.950834006e-10
-7.71163166e-10
3.634443935e-16
-6.87320654e-17
-5.00651247e-16
6.550107075e-16
3.035449357e-16
-2.745389175e-16
-5.334371941e-16
1.268559812e-16
2.624558402e-16
-1.08711316e-16
-7.366472442e-17
5.240971312e-18
6.537712382e-18
-5.791238489e-18
-7.23239176e-19
5.404500747e-20
9.029693157e-20
-8.32171375e-20
-1.367804511e-20
-5.355071991e-19
-6.952135412e-22
3.521479921e-19
7.374783638e-19
-3.751599099e-12
-1.944955426e-13
7.774857536e-12
4.840593495e-12
-7.162414333e-11
-2.761363964e-11
1.139469395e-10
7.468028028e-11
-2.169070585e-10
-1.329843798e-10
2.726259582e-10
1.652362184e-10
7.701938098e-09
8.338816859e-10
-5.368075371e-09
-1.791453854e-09
1.059292331e-09
6.47317623e-10
-7.989451042e-10
-1.690592941e-10
1.334094547e-10
6.130745684e-11
-8.356631406e-11
-1.815747916e-11
6.711804721e-11
-3.626380814e-12
-8.193655772e-11
7.467676306e-11
2.853480885e-10
-2.663955595e-10
-3.666866376e-10
5.613766629e-10
6.077994001e-10
-9.437284946e-10
-6.106385286e-10
1.416503831e-09
1.176706915e-09
-2.004162016e-09
-7.643273635e-10
2.797679826e-09
2.350388905e-09
-3.915365339e-09
-1.130385112e-09
5.246452727e-09
2.91797144e-09
-6.019803208e-09
-1.350812066e-09
5.192656915e-09
1.494511022e-09
-3.363695508e-09
-1.166561422e-09
2.267719613e-09
1.352424716e-09
-2.164063217e-09
-1.589677407e-09
2.387890912e-09
1.035402594e-09
-2.359204047e-09
-1.174015856e-09
1.918879107e-09
5.587925367e-10
-1.346906354e-09
-2.544558602e-10
9.363620366e-10
1.584044458e-10
-5.894278773e-10
-1.970349578e-11
3.010275642e-10
3.112316599e-11
-2.178983648e-10
-7.539187928e-12
2.504559166e-10
3.804797508e-11
-3.189226725e-10
-3.073997875e-11
3.981619939e-10
6.527529872e-11
-4.868187081e-10
-3.711892742e-11
5.952967597e-10
1.267528816e-10
-7.291593033e-10
-5.681117972e-11
8.590897102e-10
1.699387763e-10
-7.22410237e-11
7.669318676e-10
-9.005685269e-10
7.534206037e-18
3.234915032e-16
-2.785317245e-17
-6.060511371e-16
1.434827201e-16
8.24119778e-16
-1.276119316e-16
-7.297359547e-16
8.149330208e-17
3.658738598e-16
-8.055897031e-17
-9.679701969e-17
6.088989107e-18
1.460285405e-17
-5.513862646e-18
-1.430580848e-18
1.051528534e-19
1.697527384e-19
-8.437307095e-20
-5.86160153e-20
-2.822959089e-19
3.222013136e-20
2.549513704e-19
1.036796355e-19
-1.227675667e-11
-2.514814925e-13
1.616712544e-11
9.880782441e-12
-1.373805428e-10
-4.323760003e-11
1.323589218e-10
8.95185785e-11
-2.594318808e-10
-1.221252687e-10
1.882621924e-10
1.186412925e-10
3.489006737e-09
3.460339885e-10
-1.807043531e-09
-1.293219591e-09
6.020663442e-10
4.24601621e-10
-4.237056404e-10
-5.288884945e-11
5.180054022e-11
2.457603149e-11
-3.246875601e-11
-1.555985145e-11
1.059426632e-10
-5.312633412e-13
-8.221371555e-11
2.016662634e-10
6.102987611e-10
-8.290068815e-10
-4.212795469e-10
1.70662499e-09
7.496741981e-10
-2.203707446e-09
-3.002697936e-10
1.820219806e-09
4.708452977e-10
-9.878798471e-10
-2.709191054e-10
5.045027955e-10
3.944322539e-10
-3.841998719e-10
-3.200957031e-10
4.041036829e-10
5.065698299e-10
-4.766407256e-10
-4.042395206e-10
6.090854962e-10
8.223135533e-10
-8.426062365e-10
-5.614208837e-10
1.214652638e-09
1.342782896e-09
-1.746614629e-09
-8.483282558e-10
2.393872706e-09
1.182224675e-09
-2.973881854e-09
-7.865453355e-10
3.221122098e-09
6.589120519e-11
-3.016203584e-09
-2.245767831e-12
2.499511737e-09
-1.08927239e-10
-1.991482005e-09
2.99488864e-10
1.658877325e-09
-3.256920339e-11
-1.399781382e-09
1.848539209e-10
1.1714562e-09
5.314787049e-11
-9.777859696e-10
1.586470817e-11
7.750774184e-10
3.890256964e-11
-5.100673619e-10
-3.237348923e-11
2.692263491e-10
1.857759182e-11
-1.481835373e-10
-2.118555483e-11
1.117608853e-10
2.633597059e-11
-1.085570584e-10
-2.62548964e-11
1.160277255e-10
4.63976968e-11
-2.833573996e-11
-1.281270604e-10
1.416998698e-16
1.721997086e-17
-1.549556024e-17
-3.636948873e-16
8.083784746e-17
6.797619667e-16
-4.629704249e-17
-7.765500415e-16
6.112248516e-17
5.162524268e-16
-3.443031141e-17
-1.920931432e-16
4.43991143e-18
3.713697996e-17
-2.096808006e-18
-4.140204101e-18
4.852750294e-20
3.457559108e-19
-2.580318978e-20
-4.299560601e-20
-2.252394286e-19
6.38346838e-20
2.370885898e-19
1.737982265e-20
-1.877075026e-11
-2.965891173e-13
1.918052852e-11
8.681561099e-12
-1.023729556e-10
-2.805932402e-11
6.24540237e-11
4.341937916e-11
-1.103654169e-10
-4.657573734e-11
6.584763655e-11
4.702072569e-11
3.382504411e-10
-3.533849925e-11
2.575390276e-10
-5.870586063e-10
2.240554336e-10
1.897604884e-10
-6.572322288e-12
-1.307142746e-11
1.917657038e-11
1.131629798e-11
-9.905497651e-12
-1.463355143e-11
4.284589331e-11
4.115171664e-12
-5.073036921e-11
1.434828009e-11
1.439059812e-10
-3.753110278e-11
-1.00798751e-10
6.746533651e-11
1.716513525e-10
-1.054290498e-10
-1.081361109e-10
1.43581873e-10
1.98912442e-10
-1.834717106e-10
-1.481339327e-10
2.341497707e-10
2.663414226e-10
-3.012596943e-10
-2.30140475e-10
3.819884781e-10
3.471801108e-10
-4.652635058e-10
-3.098225576e-10
5.412422792e-10
4.297980637e-10
-6.155384559e-10
-3.28241308e-10
7.167014309e-10
5.495667169e-10
-8.928359932e-10
-3.135308657e-10
1.191711643e-09
4.546046193e-10
-1.628164724e-09
-1.621508391e-10
2.140400571e-09
-1.104615369e-10
-2.573387483e-09
2.423073617e-10
2.782346683e-09
-4.450154062e-10
-2.76260947e-09
5.244426893e-10
2.567313082e-09
-3.472494311e-10
-2.247834851e-09
4.965993109e-10
1.823682118e-09
-6.492343757e-11
-1.272748361e-09
9.41436229e-11
6.583487178e-10
2.660255617e-11
-2.504372948e-10
-1.768052445e-11
1.023155679e-10
1.603116412e-11
-6.533745935e-11
-6.456881578e-12
5.988805029e-11
1.59389461e-11
-6.21674709e-11
-2.879694497e-12
6.535473226e-11
1.158861074e-11
1.123446303e-11
-6.757013215e-11
3.59961543e-17
4.527164716e-17
-4.864453363e-16
4.950247817e-16
6.975099244e-18
7.235943837e-17
-3.574454493e-16
4.356575078e-18
1.911606842e-16
3.1158339e-17
-1.233703727e-16
3.610485231e-18
1.221799401e-16
2.240712818e-17
-8.037637068e-17
-3.653787959e-19
1.488535562e-17
9.592856086e-18
-2.218325462e-18
-4.030897276e-21
4.584575581e-19
2.01610078e-19
-1.282260107e-19
-3.023619531e-19
1.40168996e-20
4.284467276e-19
3.194222364e-20
-1.681407297e-11
-3.915368534e-13
1.067899623e-11
6.069252709e-12
-3.200234393e-11
-1.04245232e-11
2.912641513e-11
2.174929206e-11
-6.031416804e-11
-4.091858337e-11
1.179147384e-10
6.166729192e-11
-3.502530928e-10
-3.341267716e-11
2.250688274e-09
-7.500577824e-10
-1.634508852e-09
-8.886020144e-11
4.158797314e-09
-5.011537055e-12
1.674135358e-13
5.207622713e-13
4.340722948e-14
2.287504578e-13
5.785269038e-11
-1.466511063e-11
-4.766623689e-11
5.06930266e-11
7.852229146e-11
-6.895676974e-11
-3.7938085e-11
7.072386356e-11
6.863181913e-11
-7.371367136e-11
-3.494644803e-11
9.141854809e-11
1.117678709e-10
-1.343042268e-10
-8.212589088e-11
2.11553501e-10
2.063037261e-10
-3.29297124e-10
-1.850677133e-10
4.782434346e-10
2.867951344e-10
-6.150925651e-10
-2.668016675e-10
6.754114388e-10
2.426810747e-10
-6.373351351e-10
-1.590533847e-10
5.511037576e-10
1.402894544e-10
-4.913055559e-10
-1.432441131e-11
5.068335941e-10
-2.147435058e-11
-6.087820163e-10
1.245295067e-10
8.151407553e-10
-1.280570447e-10
-1.485472894e-09
-1.525392196e-10
2.863774707e-09
-1.549492894e-10
-4.866115118e-09
-7.003479535e-10
6.527177484e-09
-3.418297712e-10
-6.327983207e-09
-4.328341857e-10
4.194358052e-09
-7.579331436e-11
-1.857809281e-09
2.530909041e-11
5.683501508e-10
5.49831895e-13
-1.81607637e-10
9.992460676e-12
8.769471379e-11
-1.767177602e-12
-5.570921737e-11
5.994155162e-12
4.210002905e-11
-2.930352417e-12
-3.742792864e-11
5.444725129e-12
3.758185766e-11
-1.73221761e-12
4.940658265e-12
4.191126304e-11
-3.998051492e-11
-6.114055488e-13
-1.677623552e-11
-4.764319001e-11
5.405301911e-11
-2.539664273e-12
-3.023203466e-12
-6.481857655e-11
-1.735729082e-12
5.272937833e-11
3.250698494e-12
-3.781852476e-11
-1.012534393e-13
1.16003756e-10
5.417384101e-11
-5.80505192e-10
-4.559566665e-16
2.400380176e-09
7.168908373e-10
-5.797616981e-09
-1.311859104e-15
7.507428657e-09
-1.604026057e-10
-6.492608485e-09
-3.959764363e-16
4.526477432e-09
1.496557165e-10
-2.95245299e-09
-1.951260752e-09
2.394663894e-09
8.357033762e-10
-6.117190631e-10
-1.55994535e-10
4.851725952e-10
4.523092237e-10
-4.27970666e-10
-5.080556058e-10
4.849697466e-10
1.277085211e-09
-7.874040217e-10
-3.454478033e-09
1.095009975e-09
3.153077431e-09
-8.547848364e-10
-4.911970285e-09
1.922716124e-10
3.112887369e-09
-3.502365559e-12
5.548462756e-14
2.103804492e-13
-2.491566715e-15
3.291191465e-14
6.819710563e-13
-3.285257368e-13
-2.556763135e-13
1.101717775e-12
2.003741727e-12
-1.898068642e-12
-2.46118226e-13
3.665977446e-12
1.182532402e-11
-9.962604749e-12
-2.605515444e-12
3.106605084e-11
5.301996697e-11
-8.14832925e-11
-1.802914952e-11
1.745041821e-10
1.445655804e-10
-3.265604012e-10
-5.77682136e-11
5.53502984e-10
2.186460363e-10
-8.294046849e-10
-8.191544403e-11
1.021311177e-09
5.50844483e-11
-9.314456706e-10
6.971199793e-11
6.033960491e-10
-7.181396401e-11
-3.667560809e-10
1.189023602e-10
3.232021106e-10
-1.604134973e-10
-4.205207777e-10
2.024573421e-10
4.901421758e-10
8.724138622e-11
-3.96297056e-10
4.74407528e-11
2.902119106e-10
1.70797405e-10
-2.744644095e-10
7.242549187e-12
4.457901402e-10
2.409284717e-10
-9.096844793e-10
6.137363711e-11
1.502410268e-09
-6.071892297e-11
-1.7392856e-09
2.683452561e-10
1.387102687e-09
-6.063474625e-11
-7.537438795e-10
1.339315451e-10
3.406427509e-10
-1.76515757e-11
-1.72506326e-10
4.432222352e-11
1.091707997e-10
-9.829299736e-12
-8.400328525e-11
1.951522392e-11
7.187753035e-11
-7.930448775e-12
1.276262823e-11
5.60617838e-11
-6.290078444e-11
-3.751493387e-12
1.453854281e-10
-1.728339601e-09
2.986898369e-09
-8.080609028e-11
8.12216419e-10
-2.736880184e-09
-5.366727013e-11
2.21754825e-09
5.266913142e-10
-1.933033996e-09
-2.057804717e-10
1.924034639e-09
4.767844585e-10
-2.090517709e-09
-7.344127216e-10
1.840718283e-09
4.243724753e-10
-1.126102202e-09
-1.722991754e-11
7.188938707e-10
1.548238505e-10
-6.992063499e-10
-1.420776711e-10
8.324213109e-10
2.274476416e-10
-1.060364361e-09
-5.238807368e-10
1.311709131e-09
5.891504019e-10
-1.414583632e-09
-7.389446409e-10
1.339207394e-09
8.562688484e-10
-1.170374489e-09
-1.592597691e-09
1.111494892e-09
1.209934445e-09
-1.027303598e-09
-1.837727264e-09
6.432273634e-10
6.881224445e-10
-4.078104616e-10
-1.0783124e-09
2.954980961e-10
2.457506235e-10
-1.434979129e-12
2.235760328e-17
1.138225371e-15
8.065864421e-16
-1.787494891e-16
3.706362341e-13
-9.420613485e-15
2.775764156e-12
-8.207996012e-15
2.717108677e-15
3.326156322e-15
1.206475554e-14
7.502052623e-15
4.031572756e-13
-4.692436286e-13
4.233105424e-12
3.705265964e-12
-1.917765731e-12
-9.676637035e-12
1.388961691e-11
1.721118568e-11
-8.672430818e-12
-2.758745976e-11
2.604971051e-11
4.404458469e-11
-4.199912145e-11
-7.783591444e-11
7.380405816e-11
1.377338209e-10
-1.485333951e-10
-2.037870717e-10
1.494778628e-10
2.415810739e-10
-1.543872853e-10
-2.577107614e-10
2.306232145e-10
2.937001149e-10
-3.470038899e-10
-4.198769549e-10
1.354325268e-09
5.965868171e-10
-7.015341273e-11
-3.897088174e-09
1.936783901e-09
1.038986295e-09
-5.916693349e-11
-3.057952319e-10
2.521452455e-10
2.225052222e-10
-1.183954512e-10
-2.795770526e-10
1.767438947e-10
4.203859996e-10
-2.880744269e-10
-6.474032031e-10
3.532554674e-10
9.35002043e-10
-3.801942204e-10
-1.275119294e-09
6.439352398e-10
1.708726799e-09
-5.025630818e-10
-2.26255103e-09
1.108995302e-09
2.781480064e-09
-2.155445535e-10
-2.809682449e-09
9.173970246e-10
2.002447017e-09
-2.714824109e-11
1.185567764e-10
2.713561956e-10
-8.609150939e-10
-7.013062415e-10
8.334246466e-10
-6.485293921e-09
8.628278012e-09
-1.706059633e-09
2.474267994e-09
-8.268063727e-09
-1.141561662e-09
6.748103179e-09
1.830645553e-09
-5.137434954e-09
-7.148632591e-10
3.807312507e-09
1.032471799e-09
-2.780790292e-09
-4.362933834e-10
2.00118632e-09
5.694780816e-10
-1.443388817e-09
-2.619761034e-10
1.093906219e-09
3.460319695e-10
-9.107719162e-10
-3.133654925e-10
8.645029367e-10
3.258354519e-10
-9.605137967e-10
-7.002525156e-10
1.245604939e-09
6.273405917e-10
-1.701625772e-09
-9.488774033e-10
1.893984712e-09
1.091398468e-09
-1.525559514e-09
-7.496903227e-10
1.090476986e-09
5.898838631e-10
-6.677324531e-10
-2.271704915e-10
3.105288401e-10
1.323522809e-10
-1.282134699e-10
-4.251702314e-11
3.874200313e-11
1.040796517e-11
-4.049044874e-12
-6.920073458e-14
5.536460452e-13
2.256684917e-13
-3.152450402e-13
-3.211372766e-11
-1.045629686e-12
1.143096708e-10
-1.836508225e-13
-1.382118811e-13
2.684416096e-14
5.511173845e-13
3.709503845e-13
-2.431958895e-11
-7.896094717e-12
4.476199226e-11
2.500341285e-11
-5.5279593e-11
-3.942046215e-11
8.176293987e-11
4.62779247e-11
-6.875060483e-11
-6.870117874e-11
7.848377807e-11
1.086753339e-10
-1.254982713e-10
-1.465680595e-10
1.523079201e-10
1.619791467e-10
-1.67322163e-10
-1.69187313e-10
1.757825835e-10
1.888054487e-10
-3.872625024e-10
-2.298253214e-10
2.437740237e-10
7.000220457e-11
-1.577345402e-08
3.997826662e-09
6.355962045e-09
-8.58215187e-10
-3.590771889e-08
-2.873506649e-08
4.001613143e-08
2.285079133e-08
-3.646571813e-09
-8.564377994e-09
1.51190858e-09
1.693487821e-09
-2.645991286e-10
-5.845404782e-10
3.485995191e-10
6.260333344e-10
-4.587652193e-10
-8.680632531e-10
6.301102589e-10
1.281215749e-09
-9.549426455e-10
-1.961230196e-09
1.396567544e-09
3.034812847e-09
-1.84988071e-09
-4.525881484e-09
2.745259563e-09
6.057345726e-09
-1.796305168e-09
-6.676346328e-09
2.575686649e-09
5.597716022e-09
-4.175388052e-10
8.257127052e-10
1.802955536e-09
-3.508656667e-09
-5.286766548e-10
-8.510416403e-10
2.418501128e-09
-2.326221517e-09
1.160145191e-09
-4.818243221e-09
-2.405870954e-09
6.061403835e-09
2.292037076e-09
-5.900589493e-09
-1.456111937e-09
5.065840307e-09
1.848920326e-09
-4.109888349e-09
-8.136750528e-10
3.256504144e-09
1.234532398e-09
-2.545094838e-09
-4.778317436e-10
1.960817765e-09
7.974466346e-10
-1.5014442e-09
-3.605853705e-10
1.187715972e-09
5.120942346e-10
-1.040430562e-09
-5.267536789e-10
1.056463359e-09
4.774256128e-10
-1.177206482e-09
-9.053816679e-10
1.219225886e-09
5.891865216e-10
-1.04108591e-09
-4.840093784e-10
9.392267589e-10
5.124981546e-10
-1.307803987e-09
-1.962814699e-10
2.394788878e-09
2.150407087e-09
-3.937900308e-09
-2.007653634e-10
5.146243595e-09
4.921286564e-09
-4.915545343e-09
-1.224078307e-10
2.746809244e-09
3.093841468e-09
-1.723835867e-10
-2.681175266e-10
-1.501382438e-10
6.901914029e-10
-5.32058426e-13
-8.000245081e-13
-6.489391319e-12
9.991664972e-10
4.696454672e-09
-1.256968245e-10
-4.068015958e-10
2.706991318e-10
-5.356891856e-11
-6.387672825e-11
2.673621714e-11
4.511707647e-11
1.710974551e-12
-7.157028183e-11
-1.844209494e-11
6.275012741e-11
3.797385676e-11
-1.435961095e-10
-6.654773495e-11
1.31319785e-10
9.925182593e-11
-1.761724956e-10
-1.2618573e-10
1.766835194e-10
1.530267136e-10
-2.529633459e-10
-2.00131372e-10
2.763831043e-10
2.829400636e-10
-1.012867192e-09
-3.96766146e-10
4.278448018e-10
7.296343096e-10
-2.083232364e-08
-8.374000364e-09
4.639127869e-09
2.807831173e-09
-5.32650156e-10
-8.531817448e-10
5.181330492e-10
7.089104704e-10
-4.968237019e-10
-8.796212475e-10
7.734820677e-10
1.197525723e-09
-9.398481219e-10
-1.734216479e-09
1.501565028e-09
2.631774532e-09
-2.111405497e-09
-4.057739297e-09
3.141070242e-09
6.041497838e-09
-3.783124692e-09
-8.131600882e-09
4.508130183e-09
9.214979649e-09
-3.004155276e-09
-8.340919626e-09
2.853604068e-09
6.204691765e-09
-1.197230049e-09
9.499903914e-10
3.918525129e-09
-4.433072009e-09
3.585334183e-10
-4.284532261e-10
3.034992455e-10
-3.646492967e-10
-1.348327779e-09
5.600508137e-10
5.580059453e-10
-1.043511705e-09
-1.891995976e-09
1.938325507e-09
1.464411331e-09
-3.326273363e-09
-1.897597958e-09
4.883498067e-09
2.784115097e-09
-5.767965377e-09
-1.476667264e-09
5.462643548e-09
2.674475338e-09
-4.285176865e-09
-8.14652431e-10
2.933662848e-09
1.377812303e-09
-1.891259598e-09
-4.809009698e-10
1.251677056e-09
5.798541863e-10
-8.918599922e-10
-3.875551857e-10
6.729354838e-10
3.136544484e-10
-5.442120892e-10
-4.570672535e-10
6.367979049e-10
3.218388678e-10
-1.416482443e-09
-3.627416384e-09
3.591393066e-09
2.99618563e-09
-6.917532573e-09
-9.631612408e-09
9.689731554e-09
1.003754991e-08
-9.565276285e-09
-6.120479637e-09
5.389059505e-09
6.678446607e-09
-2.65507955e-10
-6.880306167e-10
-8.912595011e-12
5.845842461e-10
-1.086763894e-10
-3.579989062e-08
-7.506881276e-10
1.003862389e-08
4.17223552e-08
-1.927308952e-08
-3.365353938e-08
2.768567828e-09
6.535810928e-09
-5.857608432e-10
4.355983453e-12
4.009344108e-11
1.546602109e-12