/*--------------------------------*- C++ -*----------------------------------*\
| =========                 |                                                 |
| \\      /  F ield         | OpenFOAM: The Open Source CFD Toolbox           |
|  \\    /   O peration     | Version:  2.1.x                                 |
|   \\  /    A nd           | Web:      www.OpenFOAM.org                      |
|    \\/     M anipulation  |                                                 |
\*---------------------------------------------------------------------------*/
FoamFile
{
    version     2.0;
    format      ascii;
    class       volVectorField;
    location    "1.7";
    object      Uf;
}
// * * * * * * * * * * * * * * * * * * * * * * * * * * * * * * * * * * * * * //

dimensions      [0 1 -1 0 0 0 0];

internalField   nonuniform List<vector> 
2828
(
(-0.1360233905 0 0.03059945509)
(-0.137152835 0 0.04244441463)
(-0.2305223069 0 0.07715100993)
(-0.2121449012 0 0.07996050039)
(-0.1999392359 0 0.0891992832)
(-0.8139833317 0 -0.4620430954)
(-0.9822514573 0 -0.5209478649)
(-1.10919752 0 -0.5170642938)
(-0.2303976641 0 0.01876300034)
(-0.1719381107 0 0.06210414246)
(-0.1483639817 0 0.09966821188)
(-0.2603841218 0 0.08903962632)
(-0.2272785325 0 0.08759723951)
(-0.2008334318 0 0.09340620386)
(-0.1653482778 0 0.1103996147)
(-0.1216202167 0 0.1326149726)
(-0.1027144086 0 0.1535635605)
(-0.397226383 0 -0.3538673025)
(-0.1350514753 0 0.1951266805)
(-0.9995658674 0 -0.5939892715)
(-1.469032905 0 -0.8229774047)
(-1.62277775 0 -0.7774716038)
(-0.3262530654 0 0.03031601055)
(-0.1905578877 0 0.1976588117)
(-0.1238264569 0 0.1973797182)
(-0.3126464133 0 0.1093649023)
(-0.2722253933 0 0.1083122911)
(-0.2154524879 0 0.108081338)
(-0.1473556249 0 0.1205405656)
(-0.09638791249 0 0.136334757)
(-0.07665863571 0 0.1551308991)
(-0.09567818586 0 0.156810502)
(-0.4382864384 0 -0.03191286976)
(-0.4349823558 0 -0.3954293682)
(-0.3289774683 0 -0.2947302868)
(-0.03264286913 0 0.06766846392)
(0.00138825535 0 0.05959300933)
(0.001497305961 0 0.04836731634)
(-1.238813544 0 -0.8363560115)
(-0.4344287608 0 0.05408879663)
(-0.199323482 0 0.4142751492)
(-0.1186322928 0 0.1998670188)
(-0.4166290902 0 0.1500912458)
(-0.369708482 0 0.1548261851)
(-0.2475081577 0 0.144985874)
(-0.1197675126 0 0.1433120929)
(-0.06519181982 0 0.1358593384)
(-0.09482042818 0 0.1610635759)
(-0.1717493079 0 0.2195100179)
(-1.361252718 0 -0.8171899601)
(-2.528033633 0 1.688037333)
(-1.462198874 0 1.198318666)
(-5.129919805 0 15.55682314)
(0.2119777926 0 5.374312477)
(0.05308682457 0 1.703441064)
(0.03716292818 0 0.9785547356)
(0.02322098027 0 0.6195909858)
(0.01627479228 0 0.4378602532)
(-0.5206634592 0 -0.07309219284)
(-0.5915928538 0 0.08781012127)
(-0.223889961 0 0.5381687036)
(-0.3628504213 0 0.01090477617)
(-0.6454633739 0 0.243265184)
(-0.5234766542 0 0.244545719)
(-0.2245412756 0 0.2129677578)
(-0.06383439079 0 0.1656002231)
(-0.1218505534 0 0.1657766398)
(-0.2348429867 0 0.2617300469)
(-0.2931439403 0 0.3281746478)
(-0.3399381301 0 0.3854757144)
(-0.3699083122 0 0.4322128663)
(-0.3546910379 0 0.4464188755)
(-0.2943036747 0 0.3841795815)
(-5.855429932 0 -8.535158709)
(-7.19891899 0 -11.48903032)
(0.5421900516 0 17.35146809)
(3.526827381 0 12.35367041)
(3.391180198 0 11.75512299)
(3.130983946 0 10.60856036)
(2.722372906 0 9.086258857)
(2.253450008 0 7.416001281)
(1.221920465 0 4.048190184)
(0.3874414813 0 1.636555795)
(0.3289143937 0 1.492158856)
(0.06620573808 0 0.8038292704)
(0.1894182533 0 0.7737705214)
(0.09979350214 0 0.4072487667)
(-0.1081959051 0 0.1670503057)
(-0.4024269935 0 0.3731354628)
(-0.6111123258 0 0.5772166254)
(-0.6250214779 0 0.6333250022)
(-0.4425348705 0 0.4980275143)
(-0.3429707959 0 0.438333268)
(-0.3503423328 0 0.4788179522)
(-0.311656698 0 0.4421280469)
(-0.2332383393 0 0.3282671043)
(-1.352149501 0 -2.215994995)
(-5.085680345 0 -7.726370551)
(-7.036509831 0 -10.57034242)
(-0.5400270052 0 5.393922865)
(-0.1770279929 0 3.342749723)
(-0.07757196284 0 2.189773083)
(-0.03756212218 0 1.647811019)
(-0.008624709754 0 1.526495702)
(-0.3684051411 0 1.168571389)
(-0.2383890816 0 1.381549194)
(0.3940757894 0 1.406028396)
(0.5505590973 0 0.8629021955)
(0.3531382483 0 0.5106157305)
(0.04762569778 0 0.1889657536)
(-0.005493652506 0 0.09938965285)
(-0.360894513 0 0.3386132519)
(-0.7108267804 0 0.613561272)
(-0.8990906502 0 0.8311220919)
(-0.9557330799 0 0.9597871325)
(-0.8384071244 0 0.912077326)
(-0.4852890422 0 0.5977819677)
(-0.3007640804 0 0.4534617534)
(-0.2781869192 0 0.4391382756)
(-0.2104594463 0 0.3257550104)
(-0.4330428377 0 -0.8374499641)
(-0.9890973785 0 -1.667061264)
(-4.434223683 0 -7.048641358)
(-6.235655441 0 -9.470374814)
(0.5371858432 0 6.841622456)
(0.3481936624 0 4.791433494)
(0.2318643819 0 3.539815929)
(0.1588669016 0 2.635182901)
(0.1160294717 0 2.044620627)
(-1.322474932 0 -0.04861590625)
(-1.156759043 0 0.455335995)
(-0.8038145053 0 1.059094127)
(-0.3937439833 0 1.689018595)
(-0.03470491474 0 2.328249192)
(0.2027746941 0 2.686168336)
(0.1432865521 0 2.015681469)
(-0.3847696794 0 0.6827107772)
(-0.7215736391 0 0.6358361388)
(-0.8863708236 0 0.8415804326)
(-0.9734600472 0 1.022556841)
(-0.9400486557 0 1.073295186)
(-0.7017121059 0 0.864346039)
(-0.2945738638 0 0.4698051192)
(-0.217909883 0 0.4039306495)
(-0.1660321995 0 0.2985000081)
(-0.1262051701 0 0.200676053)
(-0.4526754349 0 -0.9197205368)
(-0.7687143981 0 -1.525622983)
(-4.742109413 0 -8.196646916)
(-5.831783376 0 -9.45935291)
(0.9836421247 0 6.390575113)
(1.260528961 0 3.14363456)
(0.7205863032 0 2.485559873)
(0.4664364069 0 1.909928009)
(0.3219843997 0 1.449692599)
(-1.523812805 0 -0.5704500538)
(-1.204808586 0 -0.536050238)
(-0.4585318238 0 0.5823796486)
(-0.5885863546 0 0.8316785284)
(-0.655549065 0 1.076301021)
(-0.6459416559 0 1.106476989)
(-0.6065721026 0 0.9386611352)
(-0.5939362739 0 0.666533609)
(-0.6617271353 0 0.6111271472)
(-0.7327554164 0 0.7602563556)
(-0.7897811211 0 0.9281090822)
(-0.803261494 0 1.02000143)
(-0.6531235935 0 0.8819289496)
(-0.2784896573 0 0.4854765518)
(-0.147831619 0 0.3617446953)
(-0.1136059252 0 0.284511812)
(-0.0935615152 0 0.2005809992)
(-0.08439147676 0 0.1746228051)
(-0.4584502593 0 -0.944167424)
(-0.5645104553 0 -1.15682327)
(-0.8092606559 0 -1.649954697)
(-4.541620663 0 -8.545943)
(-6.593578157 0 -11.66623287)
(2.335627824 0 10.13917139)
(1.953093619 0 1.374164916)
(1.18247754 0 1.020533177)
(0.8160889709 0 0.9066687359)
(-0.6882548401 0 -0.251448186)
(-1.23808692 0 -0.6601923644)
(-1.23663023 0 -0.5618042573)
(-0.9231626822 0 0.7916983886)
(-0.6383604165 0 0.938944717)
(-0.6409356895 0 1.180413419)
(-0.7010874208 0 1.437607436)
(-0.7006345299 0 1.438791739)
(-0.645413234 0 1.092008226)
(-0.5600171757 0 0.6857066875)
(-0.5157326751 0 0.7038999393)
(-0.5355522734 0 0.7990653685)
(-0.5493485825 0 0.8453008749)
(-0.4238431049 0 0.6940574107)
(-0.1353812701 0 0.3712031094)
(-0.0747622261 0 0.3279629557)
(-0.06747368618 0 0.3197302437)
(-0.07495333061 0 0.2953331712)
(-0.07661632871 0 0.2302008587)
(-0.6021113004 0 -1.255639994)
(-0.7886326292 0 -1.63513364)
(-1.027657375 0 -2.115877851)
(-3.031013903 0 -6.176744501)
(-5.831149715 0 -11.40514718)
(3.468633253 0 12.97692603)
(1.860435734 0 1.302097359)
(1.124047291 0 0.7769679005)
(0.8431509023 0 0.5994259118)
(-0.8862221338 0 -0.6008131514)
(-0.9840620185 0 -0.6126244327)
(-1.357898895 0 -0.6130978484)
(-0.7883537139 0 0.9554384244)
(-0.4133854966 0 0.93640092)
(-0.4052818564 0 1.049047251)
(-0.485102553 0 1.251343457)
(-0.549372698 0 1.370970735)
(-0.5330429551 0 1.13339388)
(-0.4209161842 0 0.7171009641)
(-0.3529618338 0 0.6775741948)
(-0.2924966337 0 0.6598046094)
(-0.2339566095 0 0.5952114433)
(-0.05411648783 0 0.3224307657)
(-0.00891359249 0 0.2658233615)
(-0.01543914677 0 0.2864947528)
(-0.02649504499 0 0.3124230462)
(-0.03792995844 0 0.3217439752)
(-0.04647975489 0 0.2801503021)
(-0.08764524068 0 -0.6701245624)
(-0.176807965 0 -1.239884668)
(-0.3748820798 0 -2.253971046)
(-0.9009861201 0 -3.891584768)
(-3.492755491 0 -8.363889059)
(11.07996169 0 9.178517435)
(1.699162767 0 1.09343934)
(1.023066211 0 0.7191712054)
(0.7605225324 0 0.53939841)
(-0.6187166095 0 -0.5139198352)
(-0.7336365231 0 -0.5601466803)
(-1.561166428 0 -0.7104783859)
(-0.2202575929 0 0.6423239355)
(-0.2291987316 0 0.6475262278)
(-0.1870887292 0 0.609507887)
(-0.3196706075 0 0.3785159623)
(-0.3416774934 0 0.3841417659)
(-0.349177851 0 0.4452399161)
(-0.3693945419 0 0.532396739)
(-0.3289246065 0 0.592150332)
(-0.1906773729 0 0.5730977944)
(-0.01581394615 0 0.4960000369)
(0.06498056185 0 0.4192703208)
(0.03644183643 0 0.3468911671)
(-0.0110539125 0 0.2693114206)
(-0.03401604516 0 0.1886214177)
(-0.03755883552 0 0.1555251722)
(-0.04446183991 0 0.1557846691)
(-0.04428116998 0 0.1612320258)
(-0.05881968605 0 -0.6093779277)
(-0.1059067668 0 -1.114361262)
(-0.1867184228 0 -1.990238686)
(-0.3254351598 0 -3.517389297)
(-0.5540808448 0 -6.167662682)
(14.24918319 0 0.4183713983)
(1.424396101 0 0.6385322125)
(0.841953801 0 0.5754271071)
(0.6217856646 0 0.443723641)
(-0.001932414203 0 -0.1134859727)
(-0.4475987133 0 -0.4526154329)
(-1.744444426 0 -0.9655791403)
(-1.290791893 0 0.4359833499)
(-0.5397687578 0 0.2738210735)
(-0.344952465 0 0.295260123)
(-0.2870735393 0 0.3514352403)
(-0.2578603267 0 0.3952584118)
(-0.2561995422 0 0.428280197)
(-0.2590964057 0 0.4598304981)
(-0.2105478116 0 0.5008060135)
(-0.09405903553 0 0.5271376513)
(0.02374462754 0 0.5133669359)
(0.09145709077 0 0.4650811439)
(0.08508021549 0 0.3858825583)
(0.02175939588 0 0.2665071909)
(-0.04124936697 0 0.1655841798)
(-0.03757811207 0 0.1577699943)
(-0.0329135282 0 0.1566226293)
(-0.02899831996 0 0.1559526452)
(0.05834638675 0 -0.3478333859)
(0.07964371434 0 -0.4638456571)
(0.1132311846 0 -0.6444259351)
(0.167421047 0 -0.9364583959)
(0.441489871 0 -2.561862592)
(0.6891445193 0 -5.06520339)
(13.91842443 0 0.3102752533)
(1.211473477 0 0.5449547676)
(0.5260048223 0 0.3168400333)
(0.460033081 0 0.3215247001)
(0.3838778713 0 -0.08312343423)
(0.4901298726 0 0.141459218)
(0.08016126289 0 0.07366432537)
(-0.2674138165 0 0.3009699514)
(-0.3547223404 0 0.3036310751)
(-0.2696422017 0 0.3809292183)
(-0.1862634753 0 0.3977643271)
(-0.1617014005 0 0.4238563724)
(-0.1584528572 0 0.4360403065)
(-0.1493587759 0 0.4110411193)
(-0.06819971048 0 0.3887462154)
(0.03969533115 0 0.3975489276)
(-0.0130620305 0 0.5061484641)
(-0.04601249413 0 0.5688156879)
(0.005885059467 0 0.4763424025)
(0.01424152702 0 0.265098653)
(0.03339712195 0 0.2489760599)
(0.04192810482 0 0.270563844)
(0.03342157856 0 0.2551406312)
(0.02667404877 0 0.2416972933)
(-0.005115819953 0 -0.1601557734)
(0.01953406935 0 -0.2302631122)
(0.05443087224 0 -0.329084878)
(0.2306180895 0 -0.5318766552)
(0.3443249131 0 -0.8590555119)
(0.07312855104 0 -1.028233249)
(0.113826018 0 -0.9118413685)
(0.2993501168 0 -0.7192314644)
(0.3490205997 0 -0.3273803325)
(0.458910614 0 -0.1355906785)
(0.4202146983 0 -0.1557264752)
(0.5077252514 0 0.05602708613)
(-0.3252018287 0 -0.2314860946)
(-0.6132824286 0 0.6032750752)
(-0.3316154293 0 0.6662170104)
(-0.1577716541 0 0.5104084099)
(-0.1183420923 0 0.4254349116)
(-0.1064360975 0 0.4396452927)
(-0.07390535001 0 0.4565769899)
(0.01872762513 0 0.3765455725)
(0.1017675088 0 0.3123685354)
(0.1121283292 0 0.3508523708)
(-0.1927205203 0 0.4873189808)
(-0.2568003917 0 0.56377197)
(-0.099100276 0 0.5619648608)
(0.008371434113 0 0.4633595922)
(0.05774754094 0 0.3364500452)
(0.08195086525 0 0.358249264)
(0.0838706637 0 0.3538286609)
(0.07533725097 0 0.3256889813)
(0.03031714793 0 -0.4673913519)
(0.2458831435 0 -1.28427844)
(0.2921937768 0 -1.377492796)
(0.2910366565 0 -1.194542776)
(0.2203563893 0 -1.09055489)
(0.197702563 0 -1.081750892)
(0.2098365719 0 -0.8063692147)
(0.2622676749 0 -0.5764532501)
(0.3273148495 0 -0.4738475223)
(0.4049586817 0 -0.303978068)
(0.3333302199 0 -0.3163903682)
(0.4289397465 0 -0.5635069403)
(0.4535654133 0 -0.4130171107)
(0.535511773 0 0.2367283642)
(0.3610961534 0 0.2102930003)
(0.2474127973 0 0.2039687658)
(0.2082974996 0 0.249349214)
(0.1534825092 0 0.2928554656)
(0.120905584 0 0.2866353695)
(0.1510435263 0 0.2766120565)
(0.1681121192 0 0.2887217009)
(0.2484958238 0 0.219868046)
(0.03996783525 0 0.5587750243)
(0.3732691005 0 0.7726418309)
(0.2804263043 0 0.7683075739)
(0.2717440777 0 0.8050563549)
(0.3101053748 0 0.9085405126)
(0.3199386565 0 0.9345467028)
(0.240055608 0 0.7118590987)
(0.08615604766 0 0.2969685957)
(0.3187535719 0 -1.071459454)
(0.4432327088 0 -1.633740034)
(0.4511657357 0 -1.722228361)
(0.4059945317 0 -1.539434525)
(0.3585879952 0 -1.301861118)
(0.3381636288 0 -1.091491225)
(0.3290990611 0 -0.8361404706)
(0.3008926891 0 -0.5276531656)
(0.3031127527 0 -0.528591248)
(0.2854763463 0 -0.4902725849)
(0.2033728041 0 -0.4915588824)
(0.08397042333 0 -0.7845798928)
(0.5289644 0 -0.3176403128)
(0.3294074047 0 0.1065955695)
(0.4252616651 0 0.3312144481)
(0.2412625224 0 0.1766118849)
(0.2629539152 0 0.1750105326)
(0.03970050836 0 0.3210695521)
(0.1599316231 0 0.2655335057)
(0.2133553403 0 0.2623126743)
(0.218496141 0 0.2849144529)
(1.26645288 0 -1.003357854)
(2.5721882 0 1.413174516)
(1.015392351 0 1.016424102)
(0.4290089982 0 0.7866989765)
(0.4377029985 0 0.9202306088)
(0.4805668437 0 1.094272864)
(0.4801347175 0 1.141408324)
(0.3775198932 0 0.9198679138)
(0.2106210636 0 0.5452641802)
(0.2613072002 0 -0.4889128246)
(0.4076744518 0 -0.9876865266)
(0.5054198676 0 -1.37085611)
(0.5043293679 0 -1.384931423)
(0.4684059873 0 -1.23043295)
(0.4241406252 0 -1.038107775)
(0.3681299553 0 -0.8386021484)
(0.2974586964 0 -0.6409114645)
(0.2795999571 0 -0.5785967502)
(0.3045782163 0 -0.6102981657)
(0.7012834332 0 -0.8843033628)
(0.8420989934 0 -0.9100443799)
(0.826244375 0 -0.7104307622)
(0.3978024496 0 0.08938409789)
(-0.1336110102 0 2.272312611)
(0.3949481447 0 -0.1935217822)
(0.7397060311 0 -0.5316074824)
(0.7353883588 0 0.5163952795)
(0.4922784239 0 0.4188526002)
(0.3639578043 0 0.3521673384)
(0.2940959101 0 0.3203039897)
(0.2913221067 0 0.3052941143)
(1.674687605 0 0.7769620738)
(0.4891700045 0 0.6318124735)
(0.5324271064 0 0.8021842381)
(0.5837877218 0 1.004399825)
(0.6046286881 0 1.158286428)
(0.5332238908 0 1.108978075)
(0.3771181815 0 0.8553765063)
(0.2584941268 0 0.6373357392)
(0.3618567457 0 -0.4199926995)
(0.4416166697 0 -0.4878904185)
(0.5150099068 0 -0.7553744916)
(0.5224661281 0 -0.9841057691)
(0.50375795 0 -1.079410564)
(0.4558650053 0 -1.009821775)
(0.373662819 0 -0.8372243854)
(0.3213168577 0 -0.7184456621)
(0.3443839121 0 -0.7000409429)
(0.7363777282 0 -0.8571788559)
(0.9399112225 0 -0.8828465131)
(0.9609785916 0 -0.7152379829)
(0.3373204754 0 -0.04335379273)
(0.9541641304 0 3.974369533)
(0.5978042769 0 2.302982501)
(0.5940957562 0 -0.370124065)
(0.8972348911 0 0.4244586546)
(0.6058886367 0 0.3974182968)
(0.4590711157 0 0.3688878629)
(0.3844995784 0 0.3558378669)
(0.3695533482 0 0.3749563216)
(0.4103308229 0 0.441422125)
(0.4898706278 0 0.5955686068)
(0.5631772045 0 0.7784653682)
(0.5931204377 0 0.9363840798)
(0.5452090731 0 0.9812413321)
(0.4095533723 0 0.8601743021)
(0.2960494535 0 0.7262081415)
(0.2880962246 0 0.7205875295)
(0.4419674581 0 -0.4259362544)
(0.4804362706 0 -0.3207421406)
(0.529892154 0 -0.2613250294)
(0.5452296151 0 -0.7597566122)
(0.5544846967 0 -1.019878312)
(0.5554642188 0 -1.082895947)
(0.513282863 0 -0.999060609)
(0.4268064678 0 -0.8038081482)
(0.3895956348 0 -0.6823983145)
(0.4566397292 0 -0.6458364164)
(0.7797193501 0 -0.7298719924)
(0.8554964386 0 -0.6269721991)
(0.5328958351 0 -0.448110323)
(0.5918333727 0 0.01129609882)
(0.5118657755 0 -0.1905808934)
(0.4262229773 0 -0.1084936378)
(0.7453482856 0 0.2795846406)
(0.6060607799 0 0.3296802851)
(0.5098026345 0 0.3503069617)
(0.4705184255 0 0.3792279454)
(0.4702216734 0 0.4203076984)
(0.4522081484 0 0.4445048317)
(0.4499239746 0 0.5002385134)
(0.4533936306 0 0.5791101918)
(0.4253559593 0 0.6370447546)
(-0.5707632147 0 1.916949598)
(-0.01698013634 0 1.020899776)
(0.2893571862 0 0.6858615911)
(0.3246799508 0 0.7648710556)
(0.5231959826 0 -0.4183003318)
(0.554721455 0 -0.317678289)
(0.578315021 0 -0.2180484126)
(0.5543838389 0 -0.3059068519)
(0.5147991485 0 -0.6798085517)
(0.5324648247 0 -0.8174231592)
(0.5516265348 0 -0.8607254466)
(0.5351020807 0 -0.7835054004)
(0.4964312697 0 -0.647300673)
(0.4751057449 0 -0.5371665658)
(0.4924319143 0 -0.4875873681)
(0.5175988997 0 -0.4594449226)
(0.6370854671 0 -0.526153503)
(0.4941673748 0 0.1756396222)
(0.5104302134 0 -0.1110286566)
(0.3808380545 0 0.0346228848)
(0.5724183523 0 0.1889318373)
(0.5905973105 0 0.2769207312)
(0.559041972 0 0.3349387583)
(0.5659726259 0 0.4032808055)
(0.5755725225 0 0.4614505532)
(0.5300511175 0 0.473357149)
(0.4773845471 0 0.4789726486)
(0.4316339275 0 0.4824994829)
(0.7786720388 0 0.5012473527)
(2.159614217 0 3.51213808)
(2.191399701 0 4.156519283)
(1.647729825 0 3.401781281)
(0.6642148485 0 -0.3324389623)
(0.6700455619 0 -0.2358093065)
(0.6379115728 0 -0.1661352728)
(0.5080210658 0 -0.2420451745)
(0.3942043042 0 -0.4040565932)
(0.4760400445 0 -0.5663963876)
(0.5434089142 0 -0.5993209308)
(0.6051708047 0 -0.622674708)
(0.5796676057 0 -0.5739140636)
(0.5234503841 0 -0.4885308463)
(0.5103323497 0 -0.4583164446)
(0.6101108104 0 -0.5541256256)
(1.276209782 0 -0.5781469327)
(0.371651681 0 0.03528879996)
(0.3657319746 0 0.09580501228)
(0.532144589 0 0.1740587693)
(0.6081431634 0 0.2564611582)
(0.6352424416 0 0.3386821104)
(0.6823013377 0 0.4360939288)
(0.6732078489 0 0.4942668552)
(0.6008949831 0 0.5050506202)
(0.536021176 0 0.5155129097)
(0.4924863009 0 0.5292852719)
(0.4699106336 0 0.5516193502)
(2.279196761 0 2.80439997)
(1.806786259 0 2.675861427)
(0.7828999836 0 1.287971682)
(0.7374041257 0 -0.3425731823)
(0.8162214177 0 -0.2799648164)
(0.7587242029 0 -0.2097796745)
(0.5929234146 0 -0.1865202545)
(0.2996679953 0 -0.179432671)
(0.3115316947 0 -0.2110602125)
(0.5271600646 0 -0.4423694628)
(0.6808906286 0 -0.6149860339)
(0.6717459265 0 -0.6404136633)
(0.5600449612 0 -0.5235596667)
(0.5102439742 0 -0.4778255733)
(0.6813603506 0 -0.6558561371)
(0.7809585443 0 0.04139660199)
(0.3508658615 0 0.1883461664)
(0.2980879183 0 0.131993903)
(0.5672754846 0 0.1935172319)
(0.6825043108 0 0.2732944329)
(0.7587230895 0 0.3723322008)
(0.7958028678 0 0.4694054902)
(0.7339208885 0 0.5115475629)
(0.6367814129 0 0.5264293279)
(0.5666476109 0 0.5456189751)
(0.5201829865 0 0.5616879408)
(0.4988637508 0 0.5885906307)
(0.7111294592 0 0.8716676051)
(0.5728704674 0 0.7932637988)
(0.8620449869 0 -0.3305251635)
(0.8473909328 0 -0.2654859915)
(0.6114759297 0 -0.2128746636)
(0.3124887774 0 -0.1736271463)
(0.3447426106 0 -0.1815554238)
(0.6145987233 0 -0.499881069)
(0.7530916341 0 -0.6805286153)
(0.7063502734 0 -0.6796108321)
(0.5717557243 0 -0.548178118)
(0.5380828791 0 -0.5299817546)
(0.7587833167 0 -1.042282068)
(0.7495604133 0 0.3342537446)
(0.392874483 0 0.2002267752)
(0.2768062933 0 0.1577999893)
(0.5916726043 0 0.2149000171)
(0.7673981057 0 0.3107022209)
(0.8498277481 0 0.4077737146)
(0.8262485893 0 0.4770135964)
(0.7217113938 0 0.5065919468)
(0.6219959293 0 0.5292080816)
(0.5543657771 0 0.5471804219)
(0.5047868013 0 0.5495978697)
(0.4766015683 0 0.5528350881)
(0.4697892277 0 0.5784793857)
(0.4821533889 0 0.6346098612)
(0.8098999262 0 -0.3423835696)
(0.7898108642 0 -0.2957932722)
(0.5441007416 0 -0.2358838711)
(0.3579355162 0 -0.1836728396)
(0.4747688473 0 -0.3209705631)
(0.7277135356 0 -0.6375468438)
(0.8083729931 0 -0.7683214539)
(0.7978303334 0 -0.7737172482)
(1.649895322 0 -1.461064078)
(2.114172877 0 -1.755312659)
(2.028206084 0 -1.530656691)
(0.6707023738 0 0.2887789949)
(0.4034288562 0 0.196740294)
(0.5762186837 0 0.4010100269)
(0.5160180066 0 0.2081882257)
(0.7285723547 0 0.312110342)
(0.786558062 0 0.3956744487)
(0.7285496433 0 0.4451998355)
(0.6300803435 0 0.4746155122)
(0.5547836701 0 0.4997211168)
(0.4975129278 0 0.5067246475)
(0.4510380268 0 0.4947100553)
(0.4098328298 0 0.4733479347)
(0.3630934385 0 0.4542701263)
(0.6439947167 0 -0.3106746893)
(0.4936290647 0 -0.2612620805)
(0.4083814002 0 -0.1990147501)
(0.489304328 0 -0.3246419915)
(0.776023326 0 -0.6920188592)
(0.8711555609 0 -0.8463519893)
(0.7400604922 0 -0.727526556)
(1.485161071 0 -1.261857043)
(2.101470984 0 -1.670460167)
(2.138721249 0 -1.560849168)
(0.4536597496 0 0.1897499266)
(0.3760746192 0 0.1807837547)
(1.01024355 0 0.4311189275)
(0.6084957678 0 0.3125445356)
(0.5789253404 0 0.2788028331)
(0.601599743 0 0.3359901312)
(0.5438264056 0 0.3741295183)
(0.4885542225 0 0.405000005)
(0.4422221643 0 0.4205094644)
(0.3939926133 0 0.4140194109)
(0.3317928118 0 0.3824897535)
(0.2237774731 0 0.3137094116)
(0.4861005067 0 -0.2623889408)
(0.4181662763 0 -0.2023752328)
(0.3516395286 0 -0.1734587807)
(0.6718918884 0 -0.5593535322)
(0.8489019922 0 -0.7756194105)
(0.7631083532 0 -0.7270851886)
(0.6934910128 0 -0.6111287464)
(1.410444197 0 -1.092098795)
(1.543431851 0 -1.059906883)
(0.2926304154 0 0.1213649429)
(0.319084419 0 0.1493832476)
(0.7685242191 0 0.323193579)
(0.7198342948 0 0.3521991154)
(0.5324699686 0 0.2880449434)
(0.4437756764 0 0.2717986545)
(0.3905567725 0 0.2845783163)
(0.3554544 0 0.2980259982)
(0.3025927062 0 0.2876984516)
(0.217686507 0 0.2516247825)
(0.1574549874 0 0.236026865)
(0.200147352 0 -0.1046189907)
(0.3221349792 0 -0.233269526)
(0.6170655354 0 -0.483034619)
(0.6334465136 0 -0.5295228329)
(0.4026226491 0 -0.3246265428)
(0.4555304331 0 0.08488587861)
(0.2182399941 0 0.04166082477)
(0.1968848864 0 0.06833175133)
(0.2623719832 0 0.1217954252)
(0.7036844347 0 0.3007433515)
(0.6730729198 0 0.3156438209)
(0.5977391178 0 0.3055866641)
(0.5286733339 0 0.2932015017)
(0.4367929801 0 0.2652478661)
(0.3217533471 0 0.2402676903)
(0.2593991196 0 0.2342281854)
(0.2178031497 0 0.2251939499)
(0.1094293019 0 -0.06710156374)
(0.1733535963 0 -0.1081189754)
(0.246282625 0 -0.1531316454)
(0.3437413583 0 -0.08002005848)
(0.901737792 0 0.1823897086)
(0.1831617587 0 0.03857584263)
(0.1729181239 0 0.05279367454)
(0.2202965065 0 0.09875549997)
(0.6225173827 0 0.2635596153)
(0.6443108579 0 0.2935565689)
(0.6386900349 0 0.3134603994)
(0.653321582 0 0.3376432842)
(0.582397513 0 0.2854963585)
(0.4479695917 0 0.2377710332)
(0.2589908821 0 -0.05896990213)
(0.7682270314 0 0.1286016805)
(0.1571257077 0 0.03125527191)
(0.1605618296 0 0.04623731283)
(0.1899363837 0 0.07650884743)
(0.5031826337 0 0.212143503)
(0.6451680572 0 0.2881147983)
(0.7064055874 0 0.3366990947)
(0.757367362 0 0.374828501)
(-0.9960230374 0 -0.4970187453)
(-1.029375257 0 -0.4756857037)
(-0.310542332 0 0.005631374981)
(-0.1971442843 0 0.01415463352)
(-0.1663572307 0 0.0266206758)
(-0.157251542 0 0.02447505115)
(-0.1512672319 0 0.03889879083)
(-0.1543421663 0 0.05301374728)
(-0.1396414374 0 0.03769151536)
(-0.1448619028 0 0.06066702814)
(-0.2712403461 0 0.08808230065)
(-0.2497447392 0 0.07952818556)
(-0.2429314725 0 0.0823701979)
(-0.2265030792 0 0.08142755296)
(-0.2182892015 0 0.07742415757)
(-0.2170029803 0 0.0830506714)
(-0.2089490046 0 0.08579896458)
(-0.2073537642 0 0.08322216197)
(-0.1982916178 0 0.09025063255)
(-0.189086557 0 0.09914022715)
(-0.1759321477 0 0.1092864076)
(-0.1583738572 0 0.1191748727)
(-0.137115831 0 0.1309885834)
(-0.3927459273 0 -0.1574335433)
(-0.506740048 0 -0.2803779354)
(-0.8351258151 0 -0.4816845104)
(-1.106657987 0 -0.6245479523)
(-0.9404326543 0 -0.5167258356)
(-1.214184603 0 -0.6591200191)
(-1.292754884 0 -0.6662339304)
(-1.043912395 0 -0.5277475612)
(-0.1116618987 0 0.1348275419)
(-0.09665443759 0 0.145045074)
(-0.1118081721 0 0.1426915377)
(-0.08860046426 0 0.1556356606)
(-0.08589947895 0 0.1644818634)
(-0.09722456778 0 0.1622096291)
(-0.09532824467 0 0.1626605523)
(-0.1424587505 0 0.1556971394)
(-0.3419280445 0 -0.3089349142)
(-0.3266463568 0 -0.3116707075)
(0.1074985725 0 -0.2799013222)
(-0.1684826811 0 -0.4118984642)
(-1.023736702 0 -0.5307404477)
(-3.11979695 0 1.33025624)
(-3.157169997 0 1.288356078)
(-2.844548445 0 1.623882502)
(0.07365334211 0 2.59858095)
(0.1126452188 0 2.120585458)
(-0.496591181 0 -0.4552347272)
(0.03687205409 0 0.6403995909)
(0.04097328896 0 0.4576858984)
(-0.3988668564 0 -0.3598372737)
(-0.1097405873 0 0.5905919038)
(-0.3076079128 0 0.4277936863)
(-2.084926838 0 1.575177609)
(-0.3254101903 0 0.3918543604)
(-0.3026420901 0 0.3695671026)
(-6.5504908 0 -9.428274855)
(-7.488015524 0 -10.77567144)
(-8.130998142 0 -11.63579558)
(-0.3073233156 0 0.4153141389)
(-0.2698932466 0 0.3681738416)
(-1.570846677 0 -2.569899555)
(-1.935681871 0 -3.152671967)
(-2.197813043 0 -3.523255672)
(-0.2232134552 0 0.3253179949)
(-0.1961230433 0 0.2815679091)
(-0.5807477074 0 -1.030007025)
(-1.105688801 0 -1.816025959)
(-2.006129178 0 -3.280415567)
(-1.993605435 0 -3.255073301)
(-0.1899426167 0 0.3126135454)
(-0.1610030314 0 0.2462308689)
(-0.1805150997 0 0.2662181933)
(-0.1479079111 0 0.2212609295)
(-0.4317163812 0 -0.8627273032)
(-0.5520535795 0 -1.081882237)
(-0.4935394894 0 -0.9098434919)
(-0.1080301234 0 0.191039599)
(-0.101229619 0 0.1775300245)
(-0.1184392055 0 0.1897094957)
(-0.4363809775 0 -0.8934881779)
(-0.4192711475 0 -0.8541006933)
(-0.07885668908 0 0.1880426858)
(-0.5151167166 0 -1.067143649)
(-0.5679425563 0 -1.173167077)
(-0.4738389818 0 -0.9743259098)
(-0.06619687261 0 0.2795945689)
(-0.06759435583 0 0.2408531002)
(-0.07253762122 0 0.2126070853)
(-0.07663797506 0 -0.4495806043)
(0.08930543152 0 -0.4677741954)
(0.2753822067 0 -0.6465964192)
(-0.7028224188 0 -1.461124746)
(-0.02747163381 0 0.2240888622)
(-0.04076767886 0 0.1877003329)
(-0.05285796355 0 0.2404238349)
(-0.04578248732 0 0.175946824)
(-0.05359596057 0 -0.4998270454)
(-0.06874946034 0 -0.5408786518)
(-0.03856547447 0 0.1558464912)
(0.1038764841 0 -0.940632797)
(-0.09092760152 0 -0.6085744279)
(-0.04438653044 0 -0.4565119465)
(-0.004547060576 0 0.2105963887)
(-0.004646347382 0 0.2113533495)
(0.04465032466 0 -0.2498593548)
(0.05230961432 0 -0.2884856737)
(0.06790361498 0 -0.3987179535)
(0.04184696922 0 0.2572973329)
(0.03955265587 0 0.2515196942)
(0.02611324524 0 0.2374662838)
(-0.02396037294 0 -0.2087564733)
(-0.02475055463 0 -0.1987393378)
(0.003485246307 0 -0.1851253121)
(0.07221735135 0 0.2868140449)
(0.06924168955 0 0.2793803628)
(0.07078023872 0 0.3109895859)
(0.2614256734 0 -1.079268093)
(0.3367212758 0 -1.411177258)
(0.158000927 0 -0.9696887118)
(0.1550046635 0 0.4396644512)
(0.08525281946 0 0.2719005964)
(0.06728021007 0 0.2512120585)
(0.2878977209 0 -0.7517779167)
(0.3871521941 0 -1.136759414)
(0.3993496258 0 -1.417945999)
(0.2448321969 0 0.6057365975)
(0.2057072981 0 0.5253961273)
(0.1481699383 0 0.4009808386)
(0.3072711854 0 -0.4578867254)
(0.3069178499 0 -0.6183557573)
(0.2766036462 0 0.6867284094)
(0.2385234093 0 0.6002901675)
(0.3819761485 0 -0.4510317196)
(0.3425753776 0 -0.4517443778)
(0.300845274 0 0.743397492)
(0.4247384575 0 -0.4492318639)
(0.4817405697 0 -0.4271787496)
(0.4960704816 0 -0.3701061953)
(0.4561236806 0 -0.369824792)
(1.505336869 0 3.637217111)
(1.08825923 0 2.62384047)
(0.32137273 0 0.7505845112)
(0.559324554 0 -0.4051558662)
(0.5878795934 0 -0.3745644628)
(0.5426046373 0 -0.3722513456)
(1.313535783 0 2.385576147)
(0.928645169 0 1.737648838)
(1.195197463 0 2.494961194)
(0.6501176623 0 -0.3610211215)
(0.6220154435 0 -0.3689051065)
(0.5812532819 0 0.8990276903)
(0.7564170188 0 -0.3470551186)
(0.8188130932 0 -0.3377626566)
(0.7972945399 0 -0.3182071454)
(0.5191165298 0 0.6956170296)
(0.5301629431 0 0.7324867221)
(0.5508429714 0 0.7940920797)
(0.8118998286 0 -0.3466744589)
(0.8437565057 0 -0.3383970361)
(0.8720760327 0 -0.3121771741)
(0.8899284947 0 -0.2956756231)
(0.4303057016 0 0.5238137447)
(0.4220410839 0 0.5289705434)
(0.469565926 0 0.6008117311)
(0.7539990769 0 -0.3302725222)
(0.8099249988 0 -0.3266723779)
(0.2700861819 0 0.3688701489)
(0.3625380491 0 0.4653254503)
(0.539170092 0 -0.2899996741)
(0.5671498239 0 -0.2877570068)
(0.1519716902 0 0.2574845662)
(0.1898118518 0 0.2941724452)
(0.4380735419 0 -0.2232425362)
(0.4534895971 0 -0.2327554141)
(0.3928299641 0 -0.1925934173)
(0.3235360851 0 -0.1566546107)
(0.3722968609 0 -0.1691574558)
(0.1714748932 0 0.2002012042)
(0.1613231647 0 0.2095168927)
(0.1827421013 0 0.2405132716)
(0.1557030314 0 0.2215932802)
(0.1481136601 0 0.2410826274)
(0.2782982413 0 -0.1408392785)
(0.1613591737 0 -0.09646610106)
(0.1281356465 0 -0.08180595931)
(0.1718389944 0 -0.1014565967)
(0.3519903448 0 0.2812531088)
(0.3194025841 0 0.2737187623)
(0.2497298432 0 0.2359236386)
(0.1133225768 0 -0.06744188082)
(0.1029682661 0 -0.05667268912)
(0.1174362981 0 -0.05974831644)
(0.2632717112 0 -0.1692039152)
(0.1243086822 0 -0.05451249446)
(0.1618405616 0 -0.05015264789)
(0.1823066712 0 -0.06700746089)
(0.7384936903 0 0.3656039143)
(0.71806977 0 0.3476065113)
(0.640048409 0 0.3317826933)
(0.6488489122 0 0.3018144486)
(0.5721336188 0 0.2498533659)
(0.4981607376 0 0.2234680707)
(0.4341607911 0 0.2797026366)
(0.1680489218 0 -0.04879159857)
(0.5181863009 0 -0.1117896206)
(0.5236199171 0 0.1133056768)
(0.5414742502 0 0.1248081297)
(0.1452299361 0 0.0276639432)
(0.1512727717 0 0.03570257526)
(0.1550001621 0 0.03776786099)
(0.1594180434 0 0.04365841232)
(0.1674412536 0 0.05230092194)
(0.1669824399 0 0.05488306872)
(0.1835642165 0 0.0687358425)
(0.2125076629 0 0.09038041037)
(0.2234790885 0 0.09949098651)
(0.4561603513 0 0.1917789097)
(0.5710930268 0 0.2450491174)
(0.5965184511 0 0.257547346)
(0.634656622 0 0.2815212475)
(0.682278987 0 0.3150891504)
(0.7297378141 0 0.3583124789)
(-1.285440642 0 -0.6025706647)
(-0.5639179447 0 -0.08564908901)
(-0.3440545434 0 -0.007491685554)
(-0.2770233999 0 0.02422301289)
(-0.2260317541 0 0.06879048021)
(-0.1945127135 0 0.04242198698)
(-0.1875150179 0 0.1102230267)
(-0.1697910446 0 0.1434275478)
(-0.1693839883 0 0.08613835287)
(-0.1392444473 0 0.1513577202)
(-0.3191509755 0 0.1079846364)
(-0.2961910691 0 0.09821053399)
(-0.2826478034 0 0.09767119447)
(-0.2613244103 0 0.0957540023)
(-0.2403965506 0 0.08705940219)
(-0.2444338649 0 0.09555670533)
(-0.2264077055 0 0.09605586801)
(-0.2150636758 0 0.08949991927)
(-0.2055823626 0 0.09862445868)
(-0.181966573 0 0.1047645351)
(-0.1838576049 0 0.1005874113)
(-0.1569040626 0 0.1139293074)
(-0.1325229322 0 0.124146223)