/*--------------------------------*- C++ -*----------------------------------*\
| =========                 |                                                 |
| \\      /  F ield         | OpenFOAM: The Open Source CFD Toolbox           |
|  \\    /   O peration     | Version:  2.1.x                                 |
|   \\  /    A nd           | Web:      www.OpenFOAM.org                      |
|    \\/     M anipulation  |                                                 |
\*---------------------------------------------------------------------------*/
FoamFile
{
    version     2.0;
    format      ascii;
    class       surfaceScalarField;
    location    "0.6";
    object      phi;
}
// * * * * * * * * * * * * * * * * * * * * * * * * * * * * * * * * * * * * * //

dimensions      [1 1 -1 0 0 0 0];

internalField   nonuniform List<scalar> 
5536
(
5.513818343e-09
-1.452920979e-08
-3.59599025e-09
2.641012228e-09
-7.303510318e-09
-1.934481721e-09
1.321326611e-09
-4.218592367e-09
-8.243803637e-10
5.558976686e-10
-2.104984799e-09
-4.614242263e-10
2.188301915e-10
-1.532518456e-09
-2.305770127e-08
-1.33233426e-08
1.269089784e-08
-2.247638622e-08
-1.130650325e-08
2.438599013e-08
1.338690079e-08
-2.357600416e-08
-1.292071634e-08
2.121676178e-08
1.17491616e-08
-2.091645085e-08
-9.560507402e-09
1.576282838e-08
7.274735397e-09
-1.520134978e-08
-5.310964871e-09
8.192599408e-09
3.978556323e-09
-7.99236707e-09
-3.25464164e-09
5.5890792e-09
2.771121915e-09
-6.596419798e-09
-2.300908966e-09
3.785003226e-09
1.786607837e-09
-5.959088349e-09
-1.227315192e-09
1.392734858e-09
6.26419781e-10
-2.471204226e-09
-3.394595505e-10
4.730372678e-10
2.08811287e-10
-5.000673872e-10
-1.167775496e-10
4.949242535e-10
-4.303597754e-10
-2.201760864e-10
7.22775627e-11
1.598249798e-10
-6.704837323e-09
5.300535413e-10
-2.182918891e-08
-1.66601122e-08
2.29457195e-08
1.585389516e-08
-2.214522507e-08
-1.623110223e-08
2.148890583e-08
1.544292205e-08
-2.133483885e-08
-1.501567267e-08
2.203268365e-08
1.493085333e-08
-2.098503181e-08
-1.458630309e-08
2.198646451e-08
1.380055258e-08
-1.983351446e-08
-1.253747633e-08
1.897869484e-08
1.070914188e-08
-1.613195218e-08
-8.479295463e-09
1.318551622e-08
6.195817774e-09
-1.040857286e-08
-4.286403403e-09
6.926781854e-09
3.207372226e-09
-5.539981514e-09
-3.025501442e-09
7.152115881e-09
3.264987583e-09
-7.378747111e-09
-3.402120581e-09
8.070514963e-09
3.075770609e-09
-9.673978006e-09
-2.340067358e-09
4.499370383e-09
1.435919801e-09
-6.882592962e-09
-7.465059242e-10
8.677338284e-10
4.582762502e-10
-1.65419264e-09
-2.632044113e-10
8.510186662e-10
1.507961535e-10
-2.012987127e-09
-1.823974484e-10
1.101173809e-08
1.714628672e-10
-1.403543544e-08
8.336836418e-10
3.773800863e-09
-4.574123534e-10
-5.600163002e-09
5.375207244e-10
-7.187073593e-09
-1.205708874e-09
1.980916535e-09
1.400901269e-08
-1.683837995e-08
-1.669264109e-08
2.154233552e-08
1.893822487e-08
-2.079897656e-08
-1.896738033e-08
2.198226527e-08
1.818947174e-08
-2.084849416e-08
-1.700064471e-08
2.060935113e-08
1.581148706e-08
-1.905387813e-08
-1.48041167e-08
1.935888895e-08
1.391592872e-08
-1.718196199e-08
-1.292652077e-08
1.776467092e-08
1.185953891e-08
-1.905660676e-08
-1.175284626e-08
1.301313639e-08
7.980651006e-09
-1.047886605e-08
-5.688900791e-09
7.681787123e-09
3.835698023e-09
-5.622843455e-09
-2.511029473e-09
4.434811192e-09
2.031159562e-09
-3.983848445e-09
-2.35032466e-09
7.500754529e-09
3.076830072e-09
-7.770393086e-09
-3.652516724e-09
1.062280481e-08
3.585015453e-09
-1.114034764e-08
-2.990331678e-09
8.788531284e-09
2.116906361e-09
-1.006524861e-08
-1.330678463e-09
2.580564257e-09
9.416552694e-10
-3.297236918e-09
-7.493611094e-10
4.176374278e-09
7.492403607e-10
-6.687418525e-09
-1.102312975e-09
1.508570493e-08
8.808265887e-10
-1.430386236e-08
6.998492186e-10
6.899266257e-09
-6.871892419e-10
-6.882195036e-09
1.241532672e-09
1.027482092e-08
-2.280393894e-09
-1.105141031e-08
3.152878025e-09
4.992553335e-09
-6.913695614e-09
1.852595111e-09
-3.566339565e-09
-1.939062507e-09
-2.587801156e-09
7.862033999e-09
6.678937668e-09
-7.386317097e-09
-1.09314109e-08
1.557636785e-08
1.420847958e-08
-1.344999333e-08
-1.640247523e-08
1.894024608e-08
1.726256059e-08
-1.606257989e-08
-1.70263213e-08
1.863683504e-08
1.60844116e-08
-1.551407681e-08
-1.478497434e-08
1.662974541e-08
1.341691242e-08
-1.358134165e-08
-1.216309418e-08
1.483313167e-08
1.128731395e-08
-1.333475118e-08
-1.288080554e-08
3.238080812e-08
2.390454735e-08
-4.926698376e-08
-3.630697542e-08
1.198844194e-08
5.520824785e-09
-2.43476578e-08
-1.495488276e-09
4.562467491e-09
2.728660986e-09
-4.600424462e-09
-2.159047813e-09
4.243154604e-09
2.211527992e-09
-5.215410278e-09
-2.810472799e-09
8.777023235e-09
3.758991805e-09
-1.257370662e-08
-4.485809729e-09
1.179553863e-08
4.320097594e-09
-1.322100861e-08
-3.847676691e-09
1.141921223e-08
2.83568224e-09
-1.347064273e-08
-1.652148977e-09
3.802512274e-09
8.673335595e-10
-4.430919287e-09
-1.105740501e-09
8.579238887e-09
1.657357409e-09
-9.149602588e-09
-1.825439695e-09
1.215892484e-08
9.762873469e-10
-9.346493272e-09
-2.177741001e-11
5.732260793e-09
-6.021221526e-10
-4.029597258e-09
1.022577531e-09
9.956792927e-09
-1.908098659e-09
-7.756743634e-09
3.271859219e-09
9.607531328e-09
-4.507408306e-09
-1.090897196e-08
4.48406788e-09
2.510056909e-09
-2.963403027e-09
-3.999474827e-09
1.519561557e-09
-1.09271201e-09
-1.011989041e-09
2.03433961e-09
2.049510116e-09
-2.047293501e-09
-3.595940307e-09
6.384230388e-09
5.813953119e-09
-5.270769147e-09
-8.099426117e-09
1.083811406e-08
9.919789409e-09
-8.176621401e-09
-1.105397972e-08
1.258221446e-08
1.144770148e-08
-9.099224183e-09
-1.119080139e-08
1.191374782e-08
1.047475003e-08
-8.406472447e-09
-9.53448411e-09
1.034641126e-08
8.603597762e-09
-7.498226658e-09
-7.879489478e-09
9.76472812e-09
7.467184708e-09
-8.421869456e-09
-7.244221991e-09
1.491938465e-08
7.548201095e-09
-9.3192868e-09
-1.146252618e-08
1.089376574e-08
6.323316458e-09
-9.864445968e-09
-4.922758002e-09
5.3913378e-09
3.921157477e-09
-6.856396577e-09
-3.56489423e-09
7.693264192e-09
4.540449211e-09
-1.417114881e-08
-7.467529455e-09
2.273839576e-08
1.076848598e-08
-3.503767105e-08
-1.042466583e-08
1.5071445e-08
6.762085708e-09
-1.51757436e-08
-5.346050412e-09
1.483801168e-08
3.588695971e-09
-1.278366268e-08
-1.48553286e-09
6.027942737e-09
3.336540356e-10
-9.966934289e-09
-1.303917396e-09
8.313570395e-09
1.818924013e-09
-6.656816728e-09
-1.403014161e-09
6.622810356e-09
7.898983026e-10
-4.361122125e-09
-5.022801602e-10
2.441562225e-09
-2.254386208e-10
-1.402060684e-09
4.983629249e-10
5.46030735e-09
-1.06783801e-09
-3.881986076e-09
2.130005198e-09
1.039100201e-08
-3.650935307e-09
-8.707388635e-09
5.280837054e-09
6.7696835e-09
-5.599151416e-09
-9.496704466e-09
3.551785477e-09
1.373749924e-09
-1.617599809e-09
-2.508114455e-09
7.570056035e-10
-1.150515825e-09
-9.613723347e-11
1.065476601e-09
-1.032123278e-09
-1.720057716e-09
2.244603323e-09
2.010925655e-09
-1.969076407e-09
-3.091246361e-09
4.238073837e-09
4.033810509e-09
-3.404549574e-09
-4.82129847e-09
5.904433181e-09
5.322993228e-09
-4.257563666e-09
-5.508288803e-09
6.169891504e-09
5.404725511e-09
-4.110153717e-09
-5.087465367e-09
5.524750717e-09
4.681880577e-09
-3.591810977e-09
-4.386746092e-09
5.54854481e-09
4.492827276e-09
-4.806663983e-09
-5.300220309e-09
8.657675341e-09
6.788058673e-09
-9.415556717e-09
-8.307901539e-09
1.203610221e-08
9.008634137e-09
-1.131272338e-08
-8.638286449e-09
1.076069433e-08
7.589935166e-09
-9.457062676e-09
-6.516655977e-09
8.857654353e-09
6.308869769e-09
-1.173321602e-08
-8.678417868e-09
2.473599816e-08
1.467347588e-08
-2.987778797e-08
-1.850418293e-08
3.384951137e-08
1.505147675e-08
-2.014633313e-08
-9.289194387e-09
1.217709355e-08
5.315637557e-09
-8.270517778e-09
-3.138863633e-09
8.159189936e-09
1.593070847e-09
-4.394353644e-09
-5.107677624e-10
1.59626659e-08
-4.528199587e-10
-1.937582094e-08
-5.732012593e-10
5.07374447e-09
9.3120137e-10
-4.555680393e-09
-6.521326597e-10
2.670493437e-09
4.427131002e-10
-1.55614699e-09
-3.802219352e-10
9.518677675e-10
-8.331040338e-11
-8.869542653e-10
2.296431971e-10
3.396381251e-09
-7.958023114e-10
-4.081697128e-09
1.668934492e-09
6.79722936e-09
-2.662094342e-09
-5.438351117e-09
4.208727425e-09
1.078735508e-08
-6.23165358e-09
-1.008406435e-08
6.439949658e-09
4.276061733e-09
-3.773841886e-09
-5.824167415e-09
3.623676396e-10
5.717907034e-10
-1.279333828e-10
-1.416647796e-09
1.369846183e-09
-1.335700185e-09
-2.183374371e-09
1.318135632e-09
2.048233795e-09
-1.413250003e-09
-2.153113462e-09
1.896747957e-09
2.382146458e-09
-1.758548199e-09
-2.66982527e-09
2.789284442e-09
2.927984033e-09
-2.365283856e-09
-3.074027966e-09
3.22735079e-09
3.053303801e-09
-2.670468005e-09
-2.859434049e-09
2.906240993e-09
2.546691983e-09
-2.33130278e-09
-2.236564693e-09
2.634299857e-09
2.153961308e-09
-2.489255866e-09
-2.692720679e-09
5.154806056e-09
4.216904526e-09
-5.836808872e-09
-6.219196322e-09
9.079006885e-09
7.368112119e-09
-7.154174663e-09
-7.125850781e-09
8.284317373e-09
6.020472844e-09
-4.833136859e-09
-4.888105961e-09
6.940229013e-09
4.557181072e-09
-5.0397611e-09
-6.211781602e-09
1.483559702e-08
1.126398796e-08
-1.544488686e-08
-1.711965027e-08
2.402775513e-08
1.633959493e-08
-1.474206681e-08
-9.580528572e-09
8.591219799e-09
4.023193144e-09
-3.392634439e-09
-1.783471563e-09
5.594495342e-09
1.179106455e-09
-3.804114095e-09
-1.435292287e-10
2.571650483e-09
2.554683047e-10
-2.008359804e-09
-9.397126523e-11
1.691463518e-08
-2.825781071e-10
-1.131764104e-08
2.536078629e-09
6.553492513e-09
-2.06112208e-09
-1.175020559e-08
-9.317834218e-11
9.388376361e-10
1.739405392e-10
-6.932843958e-10
-1.610703485e-10
1.034796318e-09
-1.189371471e-10
-1.415728695e-09
2.562224972e-10
5.938869077e-09
-1.453843459e-09
-8.607179315e-09
2.958438736e-09
4.89955371e-09
-3.456611157e-09
-4.93357763e-09
3.454601966e-09
7.919308404e-09
-4.489306297e-09
-5.434634974e-09
5.871267491e-09
5.727472004e-09
-5.010701468e-09
-4.193886451e-09
8.196594905e-10
-8.18106144e-10
2.541114407e-09
5.790282055e-10
-3.215624485e-09
-3.938657189e-09
2.904027556e-09
-4.022648348e-09
3.553287289e-09
1.165944553e-09
3.085547576e-09
-1.409236635e-09
-2.486947447e-09
1.365195342e-09
2.274412799e-09
-1.184380687e-09
-2.164007598e-09
1.564306468e-09
2.179366257e-09
-1.376315042e-09
-2.312187459e-09
2.117341624e-09
2.503920206e-09
-2.051859073e-09
-2.643082184e-09
2.446145127e-09
2.620333787e-09
-2.452951314e-09
-2.413596014e-09
2.162515376e-09
2.141362418e-09
-2.260277335e-09
-2.103751459e-09
2.948063742e-09
2.802117704e-09
-3.648277177e-09
-4.428574768e-09
5.857175063e-09
5.788140824e-09
-4.951074639e-09
-5.625852885e-09
4.711232594e-09
4.376325678e-09
-2.827809766e-09
-2.985690864e-09
2.544763527e-09
1.995274238e-09
-1.44889588e-09
-1.727546528e-09
4.048978086e-09
2.986944847e-09
-2.944720289e-09
-7.167920948e-09
1.245787105e-08
1.208022706e-08
-7.873611144e-09
-1.211821795e-08
8.373470292e-09
7.677387585e-09
-5.229419346e-09
-3.372739146e-09
1.609408162e-09
1.014965839e-09
-1.067283488e-09
-2.992645606e-10
2.342753121e-09
3.111882955e-11
-1.315978266e-09
1.060943248e-09
2.137732589e-09
-8.77582779e-10
-1.96434601e-09
2.136927408e-11
6.3720352e-09
-1.096549081e-10
-3.863130441e-09
2.192104263e-09
1.574214868e-08
-5.352675619e-09
-1.466157959e-08
2.136066355e-09
6.759791053e-10
6.720793295e-11
-7.171703322e-10
-1.478484149e-10
2.267840391e-09
-2.094950002e-11
-3.572010781e-09
5.914707378e-10
1.107910453e-08
-2.505889714e-09
-1.215290227e-08
4.608890228e-09
4.947667706e-09
-4.993204953e-09
-4.302669446e-09
2.821900144e-09
3.313218767e-09
-2.174821845e-09
-1.74013116e-09
2.652901637e-09
2.662763448e-09
-2.775546187e-09
-1.307147153e-09
2.089953621e-09
4.790617951e-10
-4.157849635e-10
-5.783288403e-10
-4.056109117e-10
9.34904295e-11
5.423419172e-10
-7.373729232e-10
-4.852334117e-10
-9.190640342e-10
6.335400767e-10
-1.68403104e-09
-3.832567949e-09
2.634161208e-09
1.21820391e-09
-1.001930737e-09
-2.100002462e-09
9.625228057e-10
1.785785132e-09
-7.876451695e-10
-1.723012454e-09
1.27021838e-09
1.922700922e-09
-1.297895676e-09
-2.343321e-09
2.158155266e-09
2.816365359e-09
-2.344733996e-09
-3.0992281e-09
2.567730694e-09
3.067326231e-09
-2.595752866e-09
-2.83494177e-09
2.475384952e-09
2.761418433e-09
-2.553172854e-09
-3.366966185e-09
4.011329529e-09
4.689696999e-09
-3.673961289e-09
-5.395145262e-09
3.627462643e-09
4.58250318e-09
-2.431880301e-09
-3.190073787e-09
1.746964476e-09
2.091760644e-09
-1.201143798e-09
-1.401022806e-09
9.599078163e-10
9.941870112e-10
-7.085828111e-10
-8.642475994e-10
1.451792952e-09
1.261016001e-09
-4.686873904e-10
-2.540846456e-09
3.639470241e-09
4.042703658e-09
-8.155508935e-10
-4.539295114e-09
3.843462284e-09
4.415730323e-09
-2.88896034e-09
-4.049283091e-09
9.56063517e-10
9.333531704e-10
-1.157841864e-09
-2.89150295e-10
9.511756806e-10
2.550626211e-10
-1.336240492e-09
4.010788592e-10
1.130027487e-09
-2.87575091e-10
-7.090530767e-10
7.016933569e-11
3.6811985e-09
-5.139165306e-11
-5.333982641e-09
1.170609924e-09
1.010560377e-08
-2.757619936e-09
-4.831446779e-09
2.069472098e-09
7.257675142e-10
-1.885986097e-11
-7.38859738e-10
-7.221295349e-11
3.972295882e-09
4.245308545e-10
-2.459519088e-09
1.300923168e-09
1.100474886e-08
-2.184117645e-09
-7.930327628e-09
2.722154265e-09
3.089036765e-09
-2.230863707e-09
-3.343482845e-09
-1.820589487e-10
7.875133112e-10
2.140454804e-10
-6.00607878e-10
9.603368943e-11
4.708719519e-10
-1.888497851e-10
-2.541751605e-10
-3.010516564e-11
4.715311189e-10
2.624344332e-10
-4.71882481e-10
-3.682733094e-10
7.985283713e-10
3.910656975e-10
-7.797469817e-10
-3.812743381e-10
1.224786581e-09
-5.541395818e-10
-5.215099154e-10
5.4420973e-10
1.340420348e-09
-8.045765289e-10
-3.079654353e-09
2.184793143e-09
8.436909265e-10
-7.805238604e-10
-1.666133531e-09
7.147552057e-10
1.546294551e-09
-7.885715041e-10
-1.82645916e-09
1.464015581e-09
2.443605374e-09
-1.728903795e-09
-3.124910516e-09
2.438501466e-09
3.493499161e-09
-2.322876413e-09
-3.40037711e-09
2.357451523e-09
3.005400735e-09
-1.864794784e-09
-2.648267786e-09
2.269293198e-09
2.739114641e-09
-1.701089093e-09
-3.465313411e-09
2.790530102e-09
4.084093507e-09
-1.745480586e-09
-3.614161881e-09
1.537609846e-09
2.596445796e-09
-8.559757738e-10
-1.855726144e-09
8.614228231e-10
1.438245898e-09
-5.203785822e-10
-1.131096129e-09
5.451137971e-10
8.457992926e-10
-3.552172605e-10
-6.316017094e-10
4.175959475e-10
5.488575618e-10
-4.171715152e-10
-5.790008377e-10
7.796693911e-10
6.373969265e-10
-1.123257388e-09
-6.069305439e-10
1.555991125e-09
7.051129892e-10
-3.410426852e-09
-5.324964264e-09
4.602064103e-09
1.321550493e-08
-1.74499574e-08
-6.534154596e-09
2.753699699e-09
4.722739774e-09
-8.640602438e-09
-2.815421793e-09
1.488679356e-09
1.524937875e-09
-4.708373945e-09
-9.56482691e-10
6.878923745e-09
4.491152873e-09
-5.14524691e-09
-2.910043464e-09
1.381691329e-09
1.475064717e-09
-1.816391467e-09
-7.351427021e-10
7.189482053e-10
3.664771064e-10
-8.543760292e-10
-2.721190655e-10
1.118493674e-09
2.020256056e-10
-1.413023361e-09
-1.204640761e-10
5.258964915e-09
1.011349203e-09
-4.499917996e-09
-1.232022359e-09
4.78450472e-09
3.139270411e-10
-5.745917765e-09
-4.76607423e-10
3.686145217e-10
5.812138539e-10
-4.111347193e-10
-4.424783764e-10
3.850374306e-10
3.980629155e-10
-4.80551688e-10
-4.388613295e-10
5.514105767e-10
5.736023036e-10
-6.236175959e-10
-7.625999114e-10
7.518074136e-10
8.894769764e-10
-7.354550007e-10
-8.282461782e-10
3.739813e-10
-2.278497173e-10
3.309656375e-10
4.334202893e-10
1.623289563e-09
5.156779102e-09
-1.934103839e-09
-3.754941329e-09
8.927507543e-10
2.829432601e-09
-1.298798203e-09
-2.526629482e-09
1.101059878e-09
2.837473525e-09
-1.815500406e-09
-3.528789898e-09
2.071549571e-09
4.083545595e-09
-2.552356344e-09
-4.054289627e-09
2.072777674e-09
3.443833935e-09
-1.85999985e-09
-2.59571241e-09
1.338486807e-09
1.903707255e-09
-1.002702217e-09
-1.693496428e-09
1.192103049e-09
2.093121918e-09
-9.823515737e-10
-2.545702898e-09
8.140544589e-10
2.215851081e-09
-1.469573425e-10
-1.429153442e-09
3.144554034e-10
8.602276207e-10
-3.567550793e-12
-5.931355032e-10
1.821477587e-10
4.567072702e-10
4.697245243e-12
-3.680899217e-10
1.573211603e-10
3.448929808e-10
-1.568237889e-12
-4.438823537e-10
3.80939385e-10
7.2269725e-10
-1.272440553e-10
-1.217069726e-09
1.576419965e-09
1.914427384e-09
-2.287061565e-09
-3.214838446e-09
7.359489675e-09
7.081898302e-09
-9.542164207e-09
-1.423975531e-08
1.572818979e-08
1.972100707e-08
-1.271323465e-08
-2.133457192e-08
1.31229438e-08
2.277343979e-08
-1.345279736e-08
-2.208859761e-08
8.776495506e-09
1.962677729e-08
-1.10400477e-08
-1.568929002e-08
5.777970722e-09
1.024319314e-08
-9.558725843e-09
-6.774855049e-09
2.244683994e-09
3.896959294e-09
-2.766867185e-09
-2.246253389e-09
1.273022273e-09
1.424864715e-09
-2.24316792e-09
-1.250378644e-09
2.116846846e-09
1.389376679e-09
-3.183205161e-09
-1.685345957e-09
4.589115228e-09
2.171611882e-09
-4.90720023e-09
-2.65721087e-09
5.173476622e-09
2.125787478e-09
-4.438760254e-09
-1.137027744e-09
5.97876237e-10
9.524938901e-10
-1.176960009e-09
-8.58977647e-10
5.050421793e-10
7.990065694e-10
-7.534775951e-10
-8.863684492e-10
7.034465038e-10
1.211808407e-09
-1.284280617e-09
-1.715981934e-09
7.958870851e-10
1.847438336e-09
-7.913447864e-10
-1.263002864e-09
9.651777482e-11
2.984671863e-10
-5.066882573e-11
1.777232982e-10
1.84563951e-10
-4.320002239e-11
-1.890721046e-10
7.122982846e-09
2.320956193e-09
-2.574721504e-09
-6.62628549e-09
2.107285668e-09
6.710664066e-09
-3.162106779e-09
-7.391107879e-09
3.007492122e-09
8.162824903e-09
-4.265596615e-09
-8.219169439e-09
3.159046618e-09
7.153999962e-09
-3.524075948e-09
-5.301723104e-09
1.725520187e-09
3.370707336e-09
-1.530347454e-09
-1.892381568e-09
5.76661315e-10
1.002321573e-09
-4.342760703e-10
-6.205610618e-10
2.921153263e-10
9.16758354e-10
-2.042242023e-10
-3.161697314e-09
-5.878057784e-10
6.768432756e-09
9.145458563e-10
-6.241410422e-09
-2.992646988e-10
3.613793723e-09
1.235041512e-09
-1.857638736e-09
-1.544251571e-10
1.143043064e-09
5.138193053e-10
-9.914874458e-10
-2.279399366e-10
1.174472444e-09
5.590716537e-10
-1.659556663e-09
-2.56521582e-10
2.582938759e-09
4.556171141e-10
-4.396879594e-09
3.839023238e-09
7.997898998e-09
-6.056381215e-09
-1.39430679e-08
1.275475054e-08
1.84477308e-08
-1.906739575e-08
-1.805967828e-08
1.205023306e-08
1.991974322e-08
-1.20137243e-08
-2.088791692e-08
1.520510338e-08
2.204252816e-08
-1.70780652e-08
-2.202351193e-08
1.669424757e-08
2.146494287e-08
-2.436527524e-08
-2.131269683e-08
2.103499819e-08
2.03257292e-08
-3.830235586e-08
-1.516441922e-08
4.825763481e-09
7.668873659e-09
-8.733411814e-09
-6.429144693e-09
3.98463868e-09
5.660232112e-09
-6.1320496e-09
-5.253880363e-09
4.499699797e-09
5.110311654e-09
-5.620468916e-09
-5.112381628e-09
5.203583601e-09
5.287981954e-09
-5.382551589e-09
-5.439184053e-09
4.303329267e-09
4.993149159e-09
-4.514443392e-09
-4.095676945e-09
2.446351325e-09
3.538884111e-09
-3.570627703e-09
-3.16182039e-09
1.83253576e-09
3.30242833e-09
-2.768760446e-09
-4.656005673e-09
2.027082396e-09
6.628421678e-09
-1.762048449e-09
-6.197418297e-09
5.434262797e-10
3.401204501e-09
-1.143793693e-09
-1.080356103e-09
1.198495121e-11
8.449315417e-11
-4.720938831e-11
1.702150412e-11
5.072999538e-12
5.904116906e-12
-1.718515269e-11
2.631427966e-09
-1.661268408e-09
-8.790717166e-09
9.738059764e-09
2.692135998e-09
-2.511273556e-09
-1.126671863e-08
3.912966504e-09
1.307353898e-08
-3.87304143e-09
-1.418492807e-08
4.741586839e-09
1.355172809e-08
-4.062318161e-09
-1.102376171e-08
3.16297385e-09
7.540153423e-09
-2.166435242e-09
-4.370153921e-09
1.125615596e-09
2.23606263e-09
-6.369342485e-10
-1.094126962e-09
3.140657423e-10
5.547325053e-10
-2.091308053e-10
-3.01965738e-10
1.109393176e-10
2.079369792e-10
-6.429687455e-11
-4.03298929e-10
-1.35163778e-10
1.986353205e-09
-1.285987001e-10
-7.767182383e-09
-3.33574932e-09
1.279195037e-08
5.312788725e-09
-1.225827631e-08
-1.761904695e-09
9.605633329e-09
5.730735431e-09
-7.169167909e-09
-1.293712711e-09
5.834413421e-09
3.986385008e-09
-5.887185503e-09
-1.034810952e-09
7.325134059e-09
2.589825106e-09
-1.125990099e-08
1.044027128e-08
1.692676106e-08
-7.228047326e-09
-1.847135079e-08
1.70213757e-08
1.476091282e-08
-5.838279818e-09
-1.273416328e-08
1.107025697e-08
1.409705142e-08
-1.060345752e-08
-1.725863755e-08
1.777652212e-08
1.988396632e-08
-1.737792075e-08
-2.20143799e-08
3.023585422e-08
2.400426521e-08
-3.070174349e-08
-2.452667038e-08
4.414408572e-08
2.169163744e-08
-3.128460024e-08
-1.835586259e-08
1.306119968e-08
1.516152068e-08
-1.646837416e-08
-1.40353908e-08
8.02493436e-09
1.15364733e-08
-9.749411612e-09
-9.646673443e-09
6.251156189e-09
8.566948055e-09
-6.646830883e-09
-7.851998747e-09
5.517992311e-09
7.285208757e-09
-5.911469673e-09
-6.691336437e-09
4.677609742e-09
6.001590305e-09
-4.949807352e-09
-5.322563563e-09
3.844554613e-09
4.743172735e-09
-3.755212456e-09
-4.195732711e-09
3.120599564e-09
3.681213903e-09
-2.668954028e-09
-3.185353232e-09
2.336489459e-09
2.691623718e-09
-1.905656772e-09
-2.155596306e-09
1.456267654e-09
1.539975323e-09
-1.237745833e-09
-8.609938325e-10
1.000374172e-10
1.83748414e-10
-2.37335453e-10
2.183132625e-10
-5.666026175e-11
2.669442344e-10
3.269235397e-10
-2.341512497e-10
1.129993562e-09
-7.080548054e-10
-7.471557985e-09
1.019436177e-08
1.996175346e-09
-1.490356566e-09
-1.303293638e-08
3.023143292e-09
1.456831336e-08
-1.895554492e-09
-1.368488242e-08
2.669079231e-09
1.057460504e-08
-1.282043966e-09
-6.618864729e-09
1.112415644e-09
3.353189235e-09
-4.141171648e-10
-1.445116716e-09
2.781489202e-10
6.118376771e-10
-9.041057475e-11
-3.148752429e-10
1.304291445e-10
2.223062185e-10
-6.737536324e-11
-1.91415005e-10
5.135487523e-11
1.583734579e-10
-5.41770015e-11
-1.153589202e-10
3.385514441e-11
6.890258643e-11
-2.649789221e-11
-1.396228726e-10
2.703079412e-11
6.833177896e-10
-5.033571847e-11
-4.226262006e-09
-1.03036951e-08
1.457535919e-08
5.747408492e-09
-2.939554583e-08
-7.887392979e-09
4.160325983e-08
1.438550166e-08
-4.617665073e-08
-4.007336633e-09
3.368256145e-08
6.420186016e-09
-1.479574669e-08
3.596460693e-10
4.834568693e-09
1.139789274e-09
-1.6162391e-09
4.785365009e-11
5.077607922e-10
1.592735843e-10
-1.136940817e-10
8.619893784e-09
-8.739475576e-09
-3.999638969e-09
8.64547712e-09
1.668969649e-08
1.357585181e-08
-1.559050406e-08
-1.782894346e-08
2.658416603e-08
1.657969851e-08
-2.059140813e-08
-1.035202689e-08
1.401698416e-08
4.950661007e-09
-4.430733295e-09
-5.632782347e-09
1.861803642e-08
1.293233832e-08
-1.788293659e-08
-1.648633084e-08
1.206770513e-08
1.343501765e-08
-1.580090796e-08
-1.139937626e-08
7.243679644e-09
1.036787148e-08
-8.123949835e-09
-9.761730416e-09
6.749031119e-09
9.169839182e-09
-7.915419583e-09
-8.413211454e-09
5.658630587e-09
7.466296071e-09
-6.822075776e-09
-6.369300438e-09
4.053344291e-09
5.20129896e-09
-4.920071544e-09
-4.061047152e-09
2.498399173e-09
3.04281607e-09
-2.896848359e-09
-2.211286678e-09
1.460159122e-09
1.591091002e-09
-1.454460809e-09
-1.165943241e-09
9.297819143e-10
8.858117983e-10
-8.866656712e-10
-6.777306054e-10
4.848053241e-10
4.391088485e-10
-3.352088582e-09
1.124723166e-10
-1.129288097e-09
3.326122613e-09
2.295197076e-09
-7.357754484e-10
3.014734297e-10
-5.891510322e-11
-8.7561482e-09
1.38065837e-08
4.411914516e-10
2.751846251e-10
-1.524807864e-08
3.990056884e-10
1.307222215e-08
9.569072968e-10
-9.074733341e-09
2.152389e-10
5.029809004e-09
3.699629499e-10
-2.184894793e-09
5.963460403e-11
7.671787373e-10
7.005995946e-11
-2.378898838e-10
9.78501367e-12
7.801430588e-11
9.534056049e-12
-3.912955356e-11
6.305990771e-12
3.150048954e-11
3.779921908e-12
-2.939731622e-11
9.010976744e-12
2.418280878e-11
3.315873156e-11
9.092720099e-11
3.594900297e-11
5.961391472e-11
3.032234321e-10
-1.794524465e-10
9.558617026e-11
4.915597041e-10
2.255939637e-10
-2.2029689e-09
8.881288969e-10
6.163686845e-09
-4.191470343e-11
-7.601271445e-09
-6.035780081e-09
7.373939365e-09
1.354296124e-09
-9.773036764e-09
-7.151323172e-09
1.174960781e-08
5.96238818e-09
-1.163294773e-08
-3.823205456e-09
9.470941718e-09
6.905130902e-09
-6.823819609e-09
-2.760877993e-09
4.632258962e-09
4.995570809e-09
-3.472492507e-09
4.069870104e-09
5.510165608e-09
-2.910085688e-09
-9.89768725e-09
1.481974339e-08
1.519221446e-08
-1.318672834e-08
-1.718477166e-08
1.413955359e-08
1.143190271e-08
-8.361597183e-09
-3.721085312e-09
1.341563139e-09
6.578115711e-10
-6.078944346e-10
-1.350421836e-10
1.040326575e-08
-2.774930787e-11
-6.035361408e-09
2.252510986e-09
2.178215766e-08
1.057323723e-08
-2.939588748e-08
-1.281056987e-08
9.002820137e-09
1.322031887e-08
-9.637288976e-09
-1.314253892e-08
9.097274929e-09
1.294800733e-08
-9.961197924e-09
-1.243375017e-08
8.213842585e-09
1.153781781e-08
-9.548963437e-09
-1.028470034e-08
6.234349853e-09
8.753999829e-09
-7.820332618e-09
-7.06928341e-09
3.814393108e-09
5.381262186e-09
-5.235645845e-09
-3.849062947e-09
1.891372878e-09
2.626951845e-09
-3.075139087e-09
-1.891805155e-09
2.028562288e-09
2.026349773e-09
-6.928315343e-09
-3.721380575e-09
1.466524685e-08
5.390451339e-09
-2.308126485e-08
-1.713998003e-09
-3.350033676e-09
1.46587018e-11
-2.337024508e-10
-2.724296567e-10
1.650807525e-10
-1.615404678e-10
-1.169394365e-09
1.346027275e-09
2.964863782e-10
-2.565685415e-10
-1.767952494e-09
-4.352326262e-10
3.04465185e-09
-2.078252001e-10
-4.926848971e-09
-1.073590442e-09
5.573514037e-09
1.455697593e-09
-4.724992446e-09
-4.638777362e-10
3.195906368e-09
1.261335249e-09
-1.870284003e-09
-1.740332816e-10
1.158332132e-09
6.730270884e-10
-9.447426534e-10
-2.142241293e-10
1.027641808e-09
7.33219538e-10
-1.311578777e-09
-2.017390452e-09
2.334711839e-09
1.524673633e-09
-7.432343882e-09
-5.347096055e-09
1.826132706e-08
4.005423333e-09
-2.637595417e-08
-3.644832947e-09
2.480989494e-08
4.541223728e-09
-1.756664431e-08
-1.272141694e-09
9.66577261e-09
2.045009367e-09
-4.151157297e-09
-6.14224406e-10
1.64801825e-09
5.17805297e-10
-1.340687103e-09
-3.901412978e-09
2.13519943e-09
2.045889674e-09
-3.7289402e-09
-8.252621094e-09
5.567322609e-09
6.163095609e-09
-6.635686996e-09
-6.74569346e-09
4.762241824e-09
6.863688147e-09
-1.43260983e-09
1.733949347e-09
3.08938799e-09
-5.655900892e-10
-8.963374142e-09
9.652004892e-09
1.41312289e-08
-4.630529033e-09
-1.207340293e-08
4.231444024e-09
5.632605422e-09
-1.963474297e-09
-1.547073352e-09
3.347351154e-10
2.772803042e-10
-1.885507551e-10
-1.20451065e-10
4.223739409e-09
-7.842474165e-12
-3.571533157e-09
1.767642964e-09
3.158188172e-08
-1.849370532e-09
-2.081341326e-08
-1.186347408e-08
1.010700694e-08
1.394664773e-08
-1.086845258e-08
-1.459259038e-08
1.027419295e-08
1.50682903e-08
-9.939131814e-09
-1.538279621e-08
1.056790928e-08
1.53180191e-08
-1.104805214e-08
-1.479254266e-08
9.476522842e-09
1.377433039e-08
-1.094414058e-08
-1.230693625e-08
7.17963541e-09
1.055586751e-08
-9.586337693e-09
-8.902459502e-09
5.746412784e-09
8.063302734e-09
-9.994243534e-09
-8.840769011e-09
1.378100906e-08
1.044105647e-08
-1.589381672e-08
-9.858902886e-09
2.124592234e-08
6.495638941e-09
-1.448834442e-08
-1.334696147e-09
7.825763601e-10
-1.2993255e-09
-1.523341365e-09
1.117350618e-09
-3.820186931e-11
-3.687378725e-10
2.391988898e-10
9.672227884e-11
2.514895164e-11
-4.034385817e-10
2.629482663e-10
8.473752825e-10
2.65464393e-11
-1.949268568e-09
-1.16328069e-09
4.290011289e-09
6.198860492e-10
-6.996661891e-09
-2.260113557e-09
7.764220283e-09
2.554091874e-09
-6.507540337e-09
-1.670514982e-09
5.026267402e-09
2.971527908e-09
-3.942122394e-09
-1.443585048e-09
3.331784267e-09
2.204080388e-09
-2.837398834e-09
-1.345051862e-09
2.19155246e-09
1.395505974e-09
-1.481967388e-09
-1.383660694e-09
1.040988129e-09
6.090793892e-10
-1.282086626e-09
-3.062278472e-09
2.379629832e-09
1.079346674e-09
-3.730671622e-09
-2.141964803e-09
3.729394588e-09
1.542481178e-09
-2.296114342e-09
-4.943221634e-10
8.585349682e-10
4.867066271e-10
-2.758906192e-10
-9.523098841e-10
3.790887751e-10
4.364507427e-10
-5.557474928e-10
-2.934533947e-09
7.048866859e-10
1.197524701e-09
-7.189562446e-10
-4.564465595e-09
8.684685333e-10
1.996381909e-09
-2.357970274e-10
-9.679560415e-10
2.173189099e-10
8.52062522e-10
-2.726727056e-10
5.343285551e-10
5.151339126e-10
4.584818069e-10
-6.901144866e-10
9.756196462e-10
1.076207511e-09
4.671257672e-10
-1.620771768e-09
2.597100033e-12
8.228569021e-10
2.204176906e-09
-2.167228897e-10
3.232752298e-09
6.81498069e-10
-1.894778351e-10
-2.484422099e-09
7.088732455e-09
4.937330126e-09
-2.169760691e-09
-7.387244895e-09
1.273800501e-08
1.047197712e-08
-1.579885747e-08
-1.168759154e-08
9.004488711e-09
1.323997971e-08
-7.629012992e-09
-1.462159089e-08
1.08231293e-08
1.585191719e-08
-9.829432268e-09
-1.683059924e-08
1.189846053e-08
1.742142145e-08
-1.198856926e-08
-1.760550842e-08
1.20421887e-08
1.765043144e-08
-1.357771871e-08
-1.815547922e-08
1.382926102e-08
1.917975422e-08
-1.491498097e-08
-1.844858264e-08
1.327102403e-08
1.355433951e-08
-9.505846424e-09
-7.154255735e-09
7.162914891e-09
2.923977414e-09
-2.646524265e-09
-3.851469332e-10
2.100709744e-09
-2.675420493e-09
-3.55934928e-09
-1.230839689e-09
9.33770299e-10
-1.620122459e-10
3.088665793e-10
-1.298923047e-09
-2.419781066e-10
1.946273742e-09
5.203351809e-10
-3.087282571e-09
-5.628256855e-10
4.613344976e-09
1.136444952e-09
-5.830218665e-09
-2.488022224e-09
6.337097573e-09
1.886244459e-09
-6.662058016e-09
-3.75605473e-09
6.772705906e-09
3.022589299e-09
-6.121394064e-09
-2.812048979e-09
5.006544861e-09
2.999337802e-09
-3.73141593e-09
-1.497295525e-09
2.508193337e-09
1.601626901e-09
-1.504642452e-09
-5.296443526e-10
8.330281473e-10
5.533857168e-10
-4.726518872e-10
-3.701802878e-10
3.107956045e-10
2.349080496e-10
-2.840378982e-10
-7.235075203e-10
3.333968938e-10
2.953463531e-10
-3.400129386e-10
-3.975018216e-10
2.284022343e-10
2.37963208e-10
-1.040675378e-10
-2.197041468e-10
1.014621072e-10
1.406469543e-10
-9.976035295e-11
-6.081881153e-10
1.272760137e-10
4.153816726e-10
-1.672214273e-10
-1.11088727e-09
1.631814562e-10
7.634844741e-10
-1.013368629e-10
-6.244311872e-10
4.013963964e-10
1.91352445e-09
-3.671288913e-09
-1.010336324e-09
5.302349642e-09
2.811352334e-09
-3.474369023e-09
-6.593795555e-10