/*--------------------------------*- C++ -*----------------------------------*\
| =========                 |                                                 |
| \\      /  F ield         | OpenFOAM: The Open Source CFD Toolbox           |
|  \\    /   O peration     | Version:  2.1.x                                 |
|   \\  /    A nd           | Web:      www.OpenFOAM.org                      |
|    \\/     M anipulation  |                                                 |
\*---------------------------------------------------------------------------*/
FoamFile
{
    version     2.0;
    format      ascii;
    class       volVectorField;
    location    "0.6";
    object      Uf;
}
// * * * * * * * * * * * * * * * * * * * * * * * * * * * * * * * * * * * * * //

dimensions      [0 1 -1 0 0 0 0];

internalField   nonuniform List<vector> 
2828
(
(-0.5389018075 0 -0.2392762233)
(-0.4425317037 0 -0.2251426104)
(-0.3724367786 0 -0.1607883693)
(-0.2699163986 0 -0.1283761878)
(-0.254366614 0 -0.1308022964)
(-0.6656286489 0 -0.44058699)
(-0.6648864602 0 -0.4025871356)
(-0.6421370465 0 -0.3577022035)
(-0.609774419 0 -0.3015458742)
(-0.5672333095 0 -0.2524086177)
(-0.5076766601 0 -0.248642619)
(-0.449808759 0 -0.2049459028)
(-0.392919724 0 -0.1748366253)
(-0.3031470587 0 -0.1342766948)
(-0.2670872941 0 -0.1038448974)
(-0.374853029 0 -0.06777610744)
(-0.6737212922 0 0.02671801172)
(-0.640818434 0 -0.5410063503)
(-0.6563772656 0 -0.5130733521)
(-0.6685851695 0 -0.4775041961)
(-0.6626285973 0 -0.439846052)
(-0.6383931117 0 -0.3880075701)
(-0.6097292176 0 -0.3209607598)
(-0.5840915404 0 -0.259847755)
(-0.5432194517 0 -0.2538934974)
(-0.5053205811 0 -0.220685861)
(-0.5007047742 0 -0.177135266)
(-0.4516447116 0 -0.1279804104)
(-0.3120565946 0 -0.140625267)
(-0.3948969251 0 -0.04543784306)
(-0.9147483309 0 0.02133407132)
(-0.6226393026 0 0.09224594949)
(-0.2597144002 0 -0.04905286436)
(-0.5925440972 0 -0.5481274579)
(-0.6313734616 0 -0.5600628158)
(-0.6553689506 0 -0.541397623)
(-0.6639748261 0 -0.505643313)
(-0.6529045724 0 -0.4621733722)
(-0.6385881135 0 -0.4114544327)
(-0.5927724501 0 -0.3366690833)
(-0.5717224932 0 -0.2737603689)
(-0.5468932174 0 -0.2475250358)
(-0.5476371254 0 -0.2185026251)
(-0.5531996699 0 -0.1729150689)
(-0.5270605141 0 -0.1072460612)
(-0.4293381018 0 -0.1524536701)
(-0.5590139072 0 -0.07336924853)
(-1.001125043 0 0.003756195895)
(-0.785871241 0 0.08519303778)
(-0.7341925632 0 0.2096836789)
(-0.3424936585 0 0.1579738783)
(-0.2376250543 0 0.1576950428)
(-0.5011988965 0 -0.4769061471)
(-0.5815535693 0 -0.5533416558)
(-0.6215285539 0 -0.5698058348)
(-0.6388266205 0 -0.551723864)
(-0.640561672 0 -0.5143761907)
(-0.6328346432 0 -0.4787643853)
(-1.297715087 0 -0.9636233225)
(-0.7375052398 0 0.08382176499)
(-0.5382630966 0 -0.3204498956)
(-0.5414509304 0 -0.2720790323)
(-0.6009499978 0 -0.2482605468)
(-0.5916810821 0 -0.1976242617)
(-0.6030306002 0 -0.1195265692)
(-0.4820582623 0 -0.1314903958)
(-0.6907895872 0 -0.1267924163)
(-1.010366118 0 -0.03676983161)
(-0.8222217838 0 0.1008855161)
(-0.828291773 0 0.252883275)
(-0.6387474985 0 0.2872117052)
(-0.3395249272 0 0.1966844606)
(-0.1613475298 0 0.1339080125)
(-0.3269938444 0 -0.3483013281)
(-0.4794788608 0 -0.4698405498)
(-0.5626733137 0 -0.5347845006)
(-0.5980192339 0 -0.5526360365)
(-0.6089365505 0 -0.5377588338)
(-0.6064171648 0 -0.5030144388)
(-0.6057716993 0 -0.4719457036)
(-0.4210820466 0 -0.4880691817)
(-0.6301025125 0 -0.4465884211)
(-0.5643933087 0 -0.380747419)
(-0.6491157687 0 -0.3644492046)
(-1.064969407 0 -0.4411713023)
(-0.7742614702 0 -0.2680674876)
(-0.9198515014 0 -0.1671734405)
(-0.573470208 0 -0.09448996285)
(-0.7485829211 0 -0.1580430371)
(-0.9386027236 0 -0.09924225676)
(-0.7886553372 0 0.1162953428)
(-0.797687609 0 0.2924870058)
(-0.6755046683 0 0.3486075918)
(-0.4539107028 0 0.2660701803)
(-0.205902686 0 0.1378182046)
(-0.08095654782 0 -0.005675274685)
(-0.2378014067 0 -0.3327072106)
(-0.3189131071 0 -0.3728301055)
(-0.4374662223 0 -0.4433361254)
(-0.5167236055 0 -0.4862353098)
(-0.5547769919 0 -0.4981541114)
(-0.5653793577 0 -0.4848640023)
(-0.5801683788 0 -0.4731402989)
(-0.6836282297 0 -0.5311293581)
(-0.8022649874 0 -0.5702797917)
(-0.8074696122 0 -0.5227675555)
(-0.7134749729 0 -0.4675531148)
(-1.232070566 0 -0.7073673392)
(-1.961062071 0 -0.7527355473)
(-1.100821426 0 -0.3213471465)
(-1.301013925 0 -0.1893276164)
(-0.8316463958 0 0.002703699721)
(-0.7245382832 0 -0.1738147619)
(-0.8266849826 0 -0.1318157321)
(-0.7126281082 0 0.1275987478)
(-0.656374533 0 0.3071439978)
(-0.6236308917 0 0.4027964445)
(-0.4605550155 0 0.3243147838)
(-0.2359809114 0 0.1123106624)
(-0.03914779576 0 -0.1062222708)
(-0.2214892159 0 -0.3721164407)
(-0.2458598607 0 -0.374734197)
(-0.3061797252 0 -0.3947242654)
(-0.3835057675 0 -0.4235429119)
(-0.4418914965 0 -0.4385517616)
(-0.4720141501 0 -0.4293708)
(-0.4934129606 0 -0.4180498413)
(-0.6320972223 0 -0.5432059072)
(-0.8278472446 0 -0.668065517)
(-0.9508798762 0 -0.6589535565)
(-0.9523728067 0 -0.5899969592)
(-1.092050438 0 -0.8423338372)
(-1.732621936 0 -1.19028795)
(-2.356273872 0 -0.981730931)
(-1.290123555 0 0.01391225753)
(-1.287460968 0 -0.1952165099)
(-0.9397840413 0 0.1302924289)
(-0.7068033048 0 0.03600038488)
(-0.7537656851 0 -0.114998761)
(-0.5336585256 0 0.1014992017)
(-0.5756156406 0 0.2670314564)
(-0.5340686482 0 0.3744753816)
(-0.4129642746 0 0.3668725791)
(-0.210342463 0 0.1548596027)
(0.06988481091 0 -0.1618530931)
(0.1796682819 0 -0.1755051839)
(-0.2242877327 0 -0.4183766717)
(-0.2507890109 0 -0.4146559752)
(-0.2906806608 0 -0.4092509251)
(-0.3424728259 0 -0.4182815214)
(-0.3832765879 0 -0.4234248007)
(-0.403068968 0 -0.4078044187)
(-0.4860346232 0 -0.4950137613)
(-0.6964856067 0 -0.7308892307)
(-0.845661901 0 -0.795419904)
(-0.9171877707 0 -0.708522516)
(-0.9941660038 0 -0.7945580899)
(-1.216660963 0 -1.299101692)
(-1.456346041 0 -1.461542224)
(-1.846799742 0 -1.188348712)
(-1.300702314 0 0.7001025064)
(-1.184557476 0 -0.1461474438)
(-0.8719999148 0 0.3020936465)
(-0.7433734975 0 0.2975041784)
(-0.8284518465 0 -0.05827041208)
(-0.360153787 0 0.04241439402)
(-0.5362721211 0 0.2142430854)
(-0.4593491898 0 0.2516565291)
(-0.3173777731 0 0.3039549578)
(-0.1797694541 0 0.1893695063)
(-0.1217811847 0 -0.04008502731)
(-0.08992943853 0 -0.03938995714)
(-0.1444666205 0 -0.04861068934)
(-0.2076715827 0 -0.4818133424)
(-0.2139376872 0 -0.4645547985)
(-0.2319927447 0 -0.4308472788)
(-0.2720875353 0 -0.4164575226)
(-0.3317676637 0 -0.4394843276)
(-0.3736048959 0 -0.4448018032)
(-0.4012746282 0 -0.4500699458)
(-0.5208730475 0 -0.6755466142)
(-0.659361318 0 -0.8955049854)
(-0.7172731939 0 -0.8937444606)
(-0.7769553801 0 -0.8224686668)
(-0.8930270304 0 -0.8229223736)
(-0.8925834264 0 -1.161256313)
(-0.6534733247 0 -0.8785195389)
(-0.478918165 0 -1.115608167)
(-0.9815888497 0 0.4805843263)
(-1.042937721 0 -0.1233865009)
(-0.4930314284 0 0.1185419092)
(-0.5737125987 0 0.3195830473)
(-0.8580484026 0 0.08188876776)
(-0.3443297449 0 0.04573133218)
(-0.4699407253 0 0.09676119426)
(-0.2818841935 0 0.01028593086)
(-0.1454435195 0 0.01070808856)
(-0.08314913061 0 0.04359620977)
(-0.122731991 0 -0.08415528892)
(-0.1236640739 0 -0.06169106534)
(-0.1140824545 0 -0.08903260207)
(-0.1902128101 0 -0.5306145186)
(-0.186068035 0 -0.4923485152)
(-0.2019628394 0 -0.4416519196)
(-0.2716512698 0 -0.4602305639)
(-0.3424162599 0 -0.4923658824)
(-0.381675118 0 -0.479427096)
(-0.4084603076 0 -0.5150372488)
(-0.4743180238 0 -0.8028363387)
(-0.5297582375 0 -0.9889617669)
(-0.5722868986 0 -1.021085733)
(-0.6537074831 0 -1.073774217)
(-0.8284611881 0 -1.140755752)
(-1.143851282 0 -0.6296944683)
(-0.3504941755 0 -0.04889940439)
(-0.3583885643 0 -0.3392752805)
(-0.2459343746 0 -0.4810983816)
(-0.08864319004 0 -0.32586381)
(-0.2319242385 0 -0.3013862972)
(-0.2754561844 0 -0.4009892292)
(-0.42894457 0 -0.2049400822)
(-0.5032440287 0 0.006830254705)
(-0.4989515509 0 -0.1374001323)
(-0.3203536408 0 -0.0471078741)
(-0.09538124458 0 -0.1477378736)
(-0.1117467187 0 -0.1107790069)
(-0.09414697665 0 -0.1089510546)
(-0.08482442453 0 -0.1145611874)
(-0.07720556051 0 -0.1094960788)
(-0.1757483329 0 -0.5520870797)
(-0.1636831936 0 -0.5174218081)
(-0.200582526 0 -0.5142740766)
(-0.2821050089 0 -0.5619735433)
(-0.3371709258 0 -0.5597590434)
(-0.3582227383 0 -0.509038972)
(-0.3065176017 0 -0.678320016)
(-0.2682264992 0 -0.9710551664)
(-0.3282301281 0 -1.080334985)
(-0.4368862821 0 -1.227976667)
(-0.6282780369 0 -1.43019624)
(-0.7867309944 0 -1.494946243)
(-0.4177844673 0 -0.4757387023)
(-0.3568762649 0 -0.3405734849)
(-0.2982587989 0 -0.4357543469)
(-0.3246671863 0 -0.5457500246)
(-0.2766449572 0 -0.4883989984)
(-0.3439285016 0 -0.5399190123)
(-0.2804197253 0 -0.4733184705)
(-0.3612202887 0 -0.3839834361)
(-0.4581926906 0 -0.2976113532)
(-0.4514148832 0 -0.2036977203)
(-0.3056787142 0 -0.1232447355)
(-0.1198196079 0 -0.1964832476)
(-0.07620149966 0 -0.1236921624)
(-0.0702472747 0 -0.1396075546)
(-0.07526166862 0 -0.1799281926)
(-0.04682334818 0 -0.1592932396)
(-0.6634762246 0 0.5544845389)
(-0.1678590828 0 -0.5483078826)
(-0.1828437652 0 -0.576339641)
(-0.2441965243 0 -0.6511833524)
(-0.3130840341 0 -0.6939200551)
(-0.3482758818 0 -0.6524762311)
(-0.332109374 0 -0.5398204487)
(-0.279220081 0 -0.5649423934)
(0.1789724829 0 -1.333448713)
(0.4840919994 0 -1.657120074)
(0.6712433725 0 -1.689820377)
(0.7769554759 0 -1.571674869)
(0.1714816628 0 -0.8222691398)
(-0.2627334218 0 -0.5435066129)
(-0.4325490761 0 -0.5458183888)
(-0.3511157588 0 -0.5361598343)
(-0.4278355176 0 -0.5694034667)
(-0.5277374927 0 -0.5941812655)
(-0.7516824116 0 -0.5911451924)
(-0.3910088932 0 -0.5808066117)
(-0.4073955241 0 -0.5464284283)
(-0.4345459444 0 -0.4762055413)
(-0.4016056666 0 -0.3966392287)
(-0.324983254 0 -0.3529548163)
(-0.2638721421 0 -0.3019016633)
(-0.16951998 0 -0.2370318489)
(-0.09453633692 0 -0.3958013809)
(-0.08879695567 0 -0.5591108272)
(-0.09773461929 0 -0.9776956275)
(-0.2167118559 0 1.599877631)
(-0.1354640094 0 -0.5202182541)
(-0.1485502312 0 -0.5611888661)
(-0.1882050372 0 -0.6570432789)
(-0.2541571693 0 -0.7505117456)
(-0.3283687756 0 -0.7840074526)
(-0.3766987548 0 -0.7110686598)
(-0.3677331793 0 -0.6013794521)
(-0.2853399172 0 -0.5581682359)
(-0.07859085584 0 -0.7879808289)
(0.6124231361 0 -1.299319628)
(0.8887666617 0 -1.372024957)
(0.8203455608 0 -1.11580634)
(0.2932798307 0 -0.7531712346)
(-0.5453891787 0 -0.7651091153)
(-1.128569003 0 -0.7489978615)
(-0.3639518026 0 -0.4809323573)
(-0.4880423971 0 -0.5391687365)
(-0.7785856437 0 -0.5782989269)
(-1.284860161 0 -0.5489229795)
(-0.4776371883 0 -0.5702144654)
(-0.4425483186 0 -0.6304960634)
(-0.4636548038 0 -0.6137415553)
(-0.4626313071 0 -0.5727867449)
(-0.4456097378 0 -0.5181224681)
(-0.4049386424 0 -0.4361541979)
(-0.3482154009 0 -0.3375855849)
(-0.2927842852 0 -0.2421921552)
(-0.2122548004 0 -0.1618517693)
(-0.112309719 0 -0.1037208732)
(0.5527909475 0 0.5618308298)
(-0.1012537634 0 -0.4950618181)
(-0.1020437866 0 -0.6026339062)
(-0.1304083227 0 -0.7298609474)
(-0.1823929651 0 -0.8186634617)
(-0.2524530666 0 -0.8263802399)
(-0.3318952524 0 -0.7461682776)
(-0.4394319722 0 -0.7055852579)
(-0.1733536831 0 -0.6070476744)
(-0.3277702788 0 -0.7535906083)
(-0.4421140083 0 -0.64106512)
(0.5385116034 0 -0.859278007)
(0.6346981333 0 -1.864143276)
(0.4082017226 0 -3.281732547)
(0.4536226186 0 -3.340437767)
(0.7299536867 0 -1.901950482)
(-0.1560359434 0 0.8478242151)
(-0.512543332 0 -0.4935752097)
(-0.9642509218 0 -0.606135888)
(-1.713972687 0 -0.5122135801)
(-0.5724789117 0 -0.3766559253)
(-0.4883823975 0 -0.6185096292)
(-0.5123138955 0 -0.7167600416)
(-0.530333444 0 -0.6953106509)
(-0.5287088619 0 -0.6638006113)
(-0.5052965592 0 -0.6015120553)
(-0.4577374675 0 -0.4982890457)
(-0.3899304374 0 -0.3601639481)
(-0.2987662746 0 -0.2278707629)
(-0.240292737 0 -0.1572181863)
(0.4606977379 0 0.2990659724)
(-0.01358875361 0 -0.5763257094)
(0.04580558819 0 -0.8172167345)
(0.04612854078 0 -0.9258563406)
(0.03019920382 0 -0.9800877886)
(0.01244641489 0 -0.9327886138)
(-0.007378538437 0 -1.092232494)
(-0.03986095821 0 -1.130350559)
(0.04120738332 0 0.5066011787)
(0.1787520834 0 -0.3883754654)
(0.133872285 0 -0.5301012237)
(-0.3760358509 0 -1.264264465)
(0.1085133274 0 -1.517967098)
(0.9744602408 0 -2.284996737)
(1.573517795 0 -2.109838635)
(1.268139916 0 -1.028426352)
(-0.2905607249 0 -0.4199153728)
(-0.5132540215 0 -0.5786332964)
(-0.9555330811 0 -0.8568718568)
(-1.633764357 0 -0.714848636)
(-0.9351548235 0 0.4299839702)
(-0.5276507246 0 -0.4517083889)
(-0.5388881689 0 -0.8003786057)
(-0.5701081653 0 -0.7994094832)
(-0.5822961186 0 -0.796820084)
(-0.5715719814 0 -0.7667498283)
(-0.5310585854 0 -0.6947113697)
(-0.4583379434 0 -0.5619180987)
(-0.6064296981 0 -0.4485996838)
(-1.675142651 0 -0.4259768246)
(0.1081541609 0 0.01097579178)
(-0.1015475792 0 -0.3952451027)
(-0.2005291169 0 -0.4879442797)
(-0.02378187715 0 -0.586764955)
(0.1719188528 0 -0.7037516001)
(0.2589900993 0 -0.7024798651)
(0.3428929489 0 -0.5890391439)
(0.3143245559 0 -0.4194870084)
(0.2700499778 0 -0.4936579958)
(0.3888154995 0 -2.149647364)
(0.4902192346 0 -2.827691111)
(0.5430807931 0 -2.723651558)
(0.6665067802 0 -2.165774233)
(1.219665658 0 -1.374550347)
(1.569987244 0 -1.33051613)
(1.66546933 0 -0.9642751062)
(-0.181394649 0 -0.4503301494)
(-0.4697070307 0 -0.8092539403)
(-0.7047816197 0 -1.105566269)
(-1.144726627 0 -1.059016316)
(-0.9663393915 0 0.4496862021)
(-0.5216594098 0 -0.3039704507)
(-0.532997408 0 -0.8200075766)
(-0.5877139721 0 -0.8652491104)
(-0.6208077693 0 -0.8920096216)
(-0.6351430996 0 -0.8986367361)
(-0.6298289784 0 -0.8778624159)
(-0.6973959484 0 -0.8760558398)
(-1.474942701 0 -1.014734515)
(-2.480305992 0 -0.5910297401)
(-0.1436746184 0 -0.1930914499)
(0.007770681169 0 -0.368724023)
(-0.1947645376 0 -0.5587368555)
(-0.2403690806 0 -0.5515681796)
(0.08241003349 0 -0.4977815931)
(0.2333007193 0 -0.579342447)
(0.3757350171 0 -0.5853711637)
(0.3655590232 0 -0.543985568)
(0.3293971081 0 -0.5394817873)
(0.3262029251 0 -0.6115052199)
(0.4283427389 0 -1.085734429)
(0.6155147894 0 -1.544221571)
(0.8260052537 0 -1.423224094)
(1.267389388 0 -1.047285078)
(1.441269866 0 -0.7446910601)
(1.17537709 0 -0.4156935257)
(0.4578268514 0 -0.1313206679)
(0.08971847907 0 -0.1417883725)
(0.06597091253 0 -0.227561848)
(0.7015907119 0 -0.2832331785)
(-0.6295956038 0 -0.1293737023)
(-0.3121156695 0 -0.2843672345)
(-0.4783429714 0 -0.5230741154)
(-0.5748155389 0 -0.8805705285)
(-0.6335967843 0 -0.9402342759)
(-0.6756433272 0 -0.9864318786)
(-0.7134492778 0 -1.031539096)
(-0.859080554 0 -1.237138576)
(-1.287241359 0 -1.469260146)
(-1.962977148 0 -0.6170882526)
(-0.2041186157 0 -0.2179757647)
(0.3662928543 0 -0.9142713839)
(0.1566048628 0 -0.4769351801)
(0.08804021387 0 -0.3940275376)
(0.1409283457 0 -0.4324557343)
(0.259597022 0 -0.5331017842)
(0.3509159554 0 -0.5789736127)
(0.3773400971 0 -0.6039397267)
(0.3793438345 0 -0.5810160819)
(0.4460550219 0 -0.6193489966)
(0.6161020272 0 -0.7184141773)
(0.8391835151 0 -0.7780714499)
(1.036537994 0 -0.6875011368)
(2.38281755 0 -0.7742435777)
(2.550808792 0 -0.4366877016)
(0.5845684628 0 -0.2622544176)
(0.2861155457 0 -0.689905724)
(0.4423084969 0 -0.6043611316)
(0.9059002076 0 -0.3117453525)
(1.611909322 0 -0.0003985305926)
(0.1100722303 0 1.001983335)
(-0.05992880568 0 0.2533582353)
(-0.5239428381 0 -0.8125028993)
(-0.6057777207 0 -0.9219440977)
(-0.6758379695 0 -1.016121972)
(-0.7264714541 0 -1.076253788)
(-0.7196949453 0 -1.105276564)
(-0.3300379336 0 -1.091498117)
(0.9399783746 0 -0.9519534859)
(-0.5039144774 0 0.07344985969)
(0.2940174072 0 -0.5796113712)
(0.1588129929 0 -0.4942607249)
(0.1202241553 0 -0.478788745)
(0.1150567788 0 -0.4683707899)
(0.1653645567 0 -0.4771535448)
(0.3046084875 0 -0.5474406485)
(0.3973272919 0 -0.5962772441)
(0.4193718785 0 -0.5675111034)
(0.4763691459 0 -0.5582906089)
(0.5804862765 0 -0.5630376408)
(0.6692776028 0 -0.5094069991)
(1.001960033 0 -0.4107448355)
(2.08144627 0 -0.5117352007)
(2.495639014 0 -0.3354080478)
(0.5932462798 0 -0.1752858643)
(0.398461024 0 -0.5463700008)
(0.4426603963 0 -0.6423294882)
(0.9242603951 0 -0.4273190529)
(-0.03334723471 0 -0.2333447619)
(-0.1631409889 0 -0.172451135)
(-0.4352729933 0 -0.4850214723)
(-0.409101264 0 -0.5618026107)
(-0.5108837076 0 -0.7743965375)
(-0.623436706 0 -0.9609417229)
(-0.7114385462 0 -1.087392602)
(-0.7762355857 0 -1.165622939)
(-0.8219221596 0 -1.206542127)
(-0.8518036365 0 -1.220189654)
(-0.7555247573 0 0.2977246508)
(0.2993470986 0 -0.6004065148)
(0.1804395708 0 -0.5262555715)
(0.1313875268 0 -0.5028100893)
(0.1520787787 0 -0.4998540658)
(0.1911460106 0 -0.4846944571)
(0.2876056903 0 -0.4913884393)
(0.4086952111 0 -0.5361741134)
(0.4561969277 0 -0.5227945319)
(0.478154244 0 -0.4721206846)
(0.4777740977 0 -0.3994940736)
(0.5353417051 0 -0.3298944096)
(0.8316966069 0 -0.2726186233)
(1.646258472 0 -0.3463870208)
(1.990354129 0 -0.2517712367)
(0.5473787586 0 -0.1443514521)
(0.4208581817 0 -0.2588111828)
(0.3290475477 0 -0.2997633534)
(0.5922609067 0 -0.3734215266)
(0.5057988869 0 -0.2040447473)
(-0.3718151746 0 -0.3821311991)
(-0.3827266229 0 -0.3895610639)
(-0.3818950029 0 -0.3899171182)
(-0.3671161958 0 -0.4249432481)
(-0.4508119331 0 -0.6629315551)
(-0.616895524 0 -0.9529828156)
(-0.7355522809 0 -1.13568279)
(-0.8102945884 0 -1.236329119)
(-0.8578616385 0 -1.280217775)
(0.1459057619 0 -0.4943800849)
(0.158786866 0 -0.5087251303)
(0.2110044618 0 -0.5229124999)
(0.2677290483 0 -0.5179201888)
(0.3450985482 0 -0.4986436554)
(0.4341645137 0 -0.4848603419)
(0.4798491625 0 -0.4704403526)
(0.4756758544 0 -0.4286706211)
(0.4478423545 0 -0.3841666008)
(0.5890949153 0 -0.3576552133)
(1.114767889 0 -0.344782539)
(1.335587906 0 -0.1694469718)
(1.637588632 0 -0.2058851074)
(0.5735096508 0 -0.1767681194)
(0.4941976328 0 -0.1851428603)
(0.3557710424 0 -0.06516889408)
(0.3471192347 0 -0.31131881)
(0.6617193587 0 -0.1653822171)
(-0.3531335902 0 -0.384792423)
(-0.4065052756 0 -0.4227695103)
(-0.4388433877 0 -0.4473596837)
(-0.4383127775 0 -0.4390994438)
(-0.3855754541 0 -0.3796264691)
(-0.2732083563 0 -0.2526683633)
(-0.3104646136 0 0.1344173927)
(0.08026449415 0 -0.0950217226)
(-0.1430706298 0 -0.05267706198)
(0.1093892941 0 -0.4606321872)
(0.1808366947 0 -0.5005348907)
(0.2574851526 0 -0.5344791017)
(0.3352662153 0 -0.5459494757)
(0.4193962046 0 -0.5345307192)
(0.4869627286 0 -0.494953645)
(0.5032953184 0 -0.4433354767)
(0.4773172518 0 -0.3997444592)
(0.4403558216 0 -0.4308212823)
(0.6164462598 0 -0.6024382968)
(0.9903024602 0 -0.4168111947)
(1.431549493 0 -0.1651523164)
(1.534315773 0 -0.1630463893)
(0.6365890527 0 -0.1642188488)
(0.5702997761 0 -0.1551565897)
(0.4517536854 0 -0.03997563646)
(0.1818410596 0 -0.1486035659)
(-0.127305749 0 -0.2203232365)
(-0.307686545 0 -0.3027778613)
(-0.4033933555 0 -0.4264849941)
(-0.477029563 0 -0.4950343226)
(-0.5217399966 0 -0.5316721163)
(-0.5210933354 0 -0.5227201096)
(-0.42785657 0 -0.4255121904)
(-0.03230081311 0 -0.09318436983)
(-0.02823638949 0 -0.06322771909)
(0.1411858475 0 -0.4626657251)
(0.2558266146 0 -0.5191142322)
(0.361309937 0 -0.5534081121)
(0.4591519665 0 -0.5578717146)
(0.5287402781 0 -0.5281659813)
(0.5317002651 0 -0.4656355748)
(0.4790193361 0 -0.4064961604)
(0.4079558268 0 -0.4229431304)
(0.4627564102 0 -0.765308591)
(0.5498431552 0 -0.4260190521)
(1.424746795 0 0.01956805927)
(1.598145333 0 -0.09714773586)
(0.7555191003 0 -0.08674566346)
(0.6490582192 0 -0.09823411804)
(0.5593676137 0 0.0280615745)
(0.2591568102 0 -0.02389805228)
(0.1668314745 0 0.2593388947)
(-0.1800801364 0 -0.1429198553)
(-0.3374736467 0 -0.3418841431)
(-0.4755455294 0 -0.5022099806)
(-0.5712083107 0 -0.5887107665)
(-0.6327715517 0 -0.6382362127)
(-0.6383575759 0 -0.634988857)
(-0.032792546 0 -0.1734736697)
(0.03261832676 0 -0.08782780888)
(0.1089716087 0 -0.3938051222)
(0.160264141 0 -0.4171696791)
(0.3034394132 0 -0.4993759621)
(0.4279941018 0 -0.5405691747)
(0.5024856691 0 -0.5318642798)
(0.5033630485 0 -0.4825506551)
(0.4223034919 0 -0.4112799118)
(0.270592103 0 -0.3348703142)
(0.2405430379 0 -0.2381160633)
(0.3273058442 0 -0.2470283268)
(1.383166693 0 0.3704930219)
(1.860801877 0 -0.05497544855)
(0.8447398603 0 -0.01175116018)
(0.7027383843 0 -0.02143950207)
(0.6121548271 0 0.08908731291)
(0.3492173918 0 0.1709602598)
(0.1239190434 0 0.4217596131)
(0.06222243849 0 0.4030041681)
(-0.1134023975 0 0.2821319896)
(-0.3749510105 0 -0.3377850763)
(-0.549510766 0 -0.5466972076)
(-0.6643686449 0 -0.6411625612)
(-0.7664806629 0 -0.7619859202)
(0.2885208397 0 -0.3862654146)
(0.1224571311 0 -0.2695773988)
(0.1415017379 0 -0.2752452337)
(0.2445642606 0 -0.3573906418)
(0.3434486973 0 -0.4084689744)
(0.3442934521 0 -0.3748576889)
(0.2338262287 0 -0.2689399527)
(0.1824467684 0 -0.2203117198)
(0.2320268432 0 -0.2626436554)
(0.3657763409 0 -0.3465922077)
(1.647992781 0 0.904557423)
(1.82460135 0 -0.07188752533)
(0.8112426758 0 0.03135540631)
(0.7029376151 0 0.05157789021)
(0.5544042212 0 0.1247274643)
(0.07333359359 0 0.3307235604)
(-0.4122292985 0 1.695305366)
(-0.2602965554 0 1.213893076)
(-0.09361479613 0 0.9205567321)
(-0.1488850729 0 0.6297439682)
(-0.3106323416 0 0.01669141015)
(-0.461723089 0 -0.1193030988)
(-0.7450958178 0 -0.7083929259)
(0.1351150563 0 -0.199304481)
(0.1435842084 0 -0.1965118514)
(0.1509231318 0 -0.1953819383)
(0.1541059031 0 -0.1938860739)
(0.1562223568 0 -0.1951003641)
(0.1731916043 0 -0.20977423)
(0.2103699046 0 -0.2377061256)
(0.287660774 0 -0.2376267131)
(1.491172638 0 0.8244619565)
(1.639608041 0 -0.1019873094)
(0.7040562876 0 0.04365380509)
(0.6501452553 0 0.08432333921)
(0.65461666 0 0.2838982279)
(0.5737018125 0 0.764925195)
(0.4673716159 0 2.640799722)
(0.3170865336 0 2.166142778)
(0.2212762339 0 1.706544647)
(0.1901088383 0 1.509025859)
(0.1963995682 0 1.552251543)
(0.2215288258 0 1.693176895)
(0.1550962717 0 -0.1970305831)
(0.1685944026 0 -0.2117466088)
(0.1821575592 0 -0.2265913806)
(0.5869579277 0 -0.6432466349)
(0.1646344548 0 -0.1871591899)
(0.1998277745 0 -0.1367840341)
(0.7546968883 0 0.3285694693)
(1.434700969 0 -0.06696436111)
(0.5934667985 0 0.0388456501)
(0.5288719701 0 0.01666164027)
(0.9247915137 0 0.2259604667)
(0.8597350623 0 0.5760662114)
(0.5106815302 0 1.255629317)
(0.3378764547 0 1.213948497)
(0.272408204 0 1.127360837)
(0.2683098449 0 1.178907993)
(0.2931223019 0 1.216496894)
(1.148968617 0 -1.455389233)
(1.963914144 0 -1.851389951)
(3.815530651 0 -1.178837739)
(0.9085015328 0 0.9205049976)
(0.4733756742 0 0.4127318038)
(0.3197172613 0 0.1401985847)
(0.9563316583 0 0.08245743648)
(0.5316309109 0 0.05156325655)
(0.445968786 0 -0.03932935035)
(0.5812728436 0 0.116844727)
(0.7145542959 0 0.3312729699)
(0.5468998578 0 0.4230980175)
(0.3804660671 0 0.476734244)
(0.3353365414 0 0.595063858)
(0.5339138398 0 0.4074139654)
(0.3860032921 0 0.2627425675)
(0.2953863681 0 0.1606751972)
(0.3209380435 0 0.1188710512)
(0.4540537511 0 0.09464637423)
(0.4914493312 0 0.02987988285)
(0.4694994158 0 0.1139924013)
(0.5305262132 0 0.2061949254)
(0.5337753891 0 0.3152407963)
(-0.6553711231 0 -0.3635896039)
(-0.6396212212 0 -0.3387952265)
(-0.6210301981 0 -0.3130353156)
(-0.6015974071 0 -0.2902960255)
(-0.5906900644 0 -0.2699201582)
(-0.5755502676 0 -0.2546900356)
(-0.5600780305 0 -0.248367534)
(-0.5195503898 0 -0.2402979123)
(-0.4850274468 0 -0.2355991388)
(-0.4808806411 0 -0.2374218775)
(-0.4518725334 0 -0.2142077239)
(-0.412331872 0 -0.1946916482)
(-0.4155777135 0 -0.1838140329)
(-0.3672392899 0 -0.1616293047)
(-0.3150988782 0 -0.1351823487)
(-0.3260053574 0 -0.1561042291)
(-0.3074932707 0 -0.1445681816)
(-0.2650470248 0 -0.1305559713)
(-0.2609418395 0 -0.1315094409)
(-0.2674744087 0 -0.127716888)
(-0.2852266369 0 -0.1177356365)
(-0.3102977032 0 -0.09914725939)
(-0.3705669998 0 -0.07098743226)
(-0.6565710143 0 -0.4971464075)
(-0.6620489903 0 -0.4779381629)
(-0.6661598179 0 -0.4572476391)
(-0.6676363011 0 -0.4405972787)
(-0.6674242151 0 -0.4204768218)
(-0.6636852247 0 -0.421865124)
(-0.6533195236 0 -0.4006857071)
(-0.6591166755 0 -0.3820420342)
(-0.3747686399 0 -0.05979611458)
(-0.462530207 0 -0.0150288522)
(-0.4174625517 0 -0.02440875639)
(-0.8146867046 0 0.02830404576)
(-0.4677110265 0 0.07560976564)
(-0.436571398 0 0.0593957221)
(-0.4985045377 0 0.08041129931)
(-0.40087772 0 0.04014163903)
(-0.6262325105 0 -0.5527287559)
(-0.6383367838 0 -0.5546522225)
(-0.6471993848 0 -0.5412633017)
(-0.6471290364 0 -0.5289211082)
(-0.5518280134 0 0.1441459111)
(-0.1308169755 0 0.08340288917)
(-0.00187526456 0 -0.05694546872)
(-0.2250854413 0 0.149072595)
(-0.5163849089 0 -0.4845780415)
(-0.5599046512 0 -0.5277294269)
(-0.568906302 0 -0.5272117278)
(-0.5883595548 0 -0.5524136317)
(-0.6109655628 0 -0.5639035577)
(-0.6207128523 0 -0.5579403918)
(-0.5238939022 0 0.2378815905)
(-0.3637224788 0 0.1973299598)
(-0.2676457846 0 0.1514347724)
(-0.2464909479 0 0.1664213578)
(-0.2084403377 0 0.1621252359)
(-0.3431382014 0 -0.3487424991)
(-0.4173452353 0 -0.407742369)
(-0.4361860705 0 -0.4167756628)
(-0.1545566044 0 0.126072535)
(-0.1048123495 0 0.09084028471)
(-0.2438198924 0 -0.3211058845)
(-0.2659656907 0 -0.326938162)
(-0.2752579287 0 -0.3177344733)
(-0.03661221806 0 -0.07264122634)
(0.02803437035 0 0.0005504551869)
(-0.2261381035 0 -0.3496355747)
(-0.2363898434 0 -0.3491048302)
(-0.2680585734 0 -0.3623448764)
(-0.2668979882 0 -0.3442754899)
(0.03229824067 0 -0.1807703027)
(0.09977088223 0 -0.1969789856)
(0.01232812635 0 -0.06443341902)
(0.1887790768 0 -0.2010275461)
(-0.2232086903 0 -0.3915205504)
(-0.2354888975 0 -0.3962523541)
(-0.2285441862 0 -0.3704254974)
(0.06846455466 0 -0.08574301867)
(0.1982983009 0 -0.02424064077)
(0.2049557943 0 -0.1387453034)
(-0.2154463635 0 -0.4445645433)
(-0.2186405012 0 -0.4213599045)
(-0.09644555817 0 -0.03474853351)
(-0.1997129806 0 -0.5073022248)
(-0.1996036011 0 -0.4973900954)
(-0.208482274 0 -0.4727015211)
(-0.08545733501 0 -0.1001470883)
(-0.5105145296 0 0.1731603691)
(-0.4700625202 0 0.08382030355)
(-0.1860041898 0 -0.5543545669)
(-0.1813446511 0 -0.5472288288)
(-0.1758580993 0 -0.5307853838)
(-0.187039817 0 -0.5170330955)
(-0.05177889606 0 -0.121184316)
(-0.586030303 0 0.2800912822)
(-0.5771047399 0 0.2511424218)
(-0.6457415657 0 0.397087881)
(-0.1754215379 0 -0.5592486222)
(-0.1809484441 0 -0.5597386657)
(-0.6777464525 0 0.9033789646)
(-0.1503046502 0 -0.5323911927)
(-0.1547357223 0 -0.5366810844)
(-0.1688576862 0 -0.5515356815)
(0.461409122 0 0.9201531386)
(0.4414128149 0 0.9294053722)
(-0.1163243152 0 -0.5114456188)
(-0.1181327444 0 -0.5390113998)
(-0.1402722775 0 -0.5339839953)
(0.5398060756 0 0.4218672451)
(0.4852405173 0 0.4351461236)
(0.5111327396 0 0.5907011682)
(-0.07353769618 0 -0.4869589077)
(-0.07976443159 0 -0.5531067816)
(-0.09963237334 0 -0.5411035613)
(0.3420418547 0 0.1961157513)
(0.1652621346 0 0.1018555266)
(0.3823858901 0 0.2738841641)
(-0.06532614103 0 -0.3174084199)
(-0.06408070996 0 -0.3773955034)
(0.0224604849 0 -0.7203657865)
(-0.1034407851 0 -0.1354131962)
(-0.09393494052 0 -0.140983756)
(-0.06916268192 0 -0.1146015439)
(-0.1180328391 0 -0.4897062753)
(-0.1690517584 0 -0.5167145723)
(-0.1547032826 0 -0.4557671345)
(-0.1628254377 0 -0.2812630848)
(-0.1531719576 0 -0.2930693482)
(-0.1449327151 0 -0.2012054685)
(0.3191613596 0 -1.439916941)
(-0.02254351407 0 -0.4029267551)
(-0.7939333294 0 0.5434315573)
(-0.1112638708 0 -0.349950193)
(0.3671359181 0 -0.7580587335)
(0.3997927587 0 -1.097106863)
(-0.5448717273 0 0.1060749382)
(0.3356290401 0 -0.632054263)
(0.3008077567 0 -0.5909994367)
(0.2254130171 0 -0.5399129635)
(0.2091723788 0 -0.5161998245)
(-0.8606741501 0 -1.263350513)
(-0.8720950974 0 -1.26181928)
(-0.867463907 0 -1.208738996)
(0.2792146643 0 -0.5927473854)
(0.2434548969 0 -0.5657308103)
(0.2371455247 0 -0.5576250684)
(-0.8591898857 0 -1.30023489)
(-0.8904041083 0 -1.308280342)
(-0.8734456123 0 -1.288890368)
(0.124341398 0 -0.4748219839)
(0.1824796925 0 -0.5151237708)
(-0.350644675 0 0.01029279919)
(0.1069182309 0 -0.4571106699)
(0.1292314751 0 -0.4660928779)
(0.1417324883 0 -0.4786319851)
(-0.02688962557 0 -0.07165025184)
(-0.03006295497 0 -0.06669100473)
(-0.04571946101 0 -0.05885208154)
(0.1138551758 0 -0.4507329953)
(0.1168335025 0 -0.4269835416)
(0.1594287268 0 -0.4514521623)
(0.1999288953 0 -0.4913959818)
(-0.1358738122 0 -0.5522487483)
(-0.01442029054 0 -0.1940407749)
(-0.0003358314308 0 -0.1061937979)
(0.1157813397 0 -0.3353110875)
(0.1188260641 0 -0.393138834)
(-0.3148299924 0 0.4762326273)
(0.006572088296 0 -0.2351070381)
(0.1290973175 0 -0.2211700761)
(0.1262435738 0 -0.2635403364)
(0.1959000539 0 1.591174633)
(-0.8671931827 0 -0.8979158511)
(0.1394970381 0 -0.1928003107)
(0.1385482458 0 -0.1973660083)
(0.1419018288 0 -0.1910140185)
(0.1438750279 0 -0.1893152765)
(0.147171253 0 -0.1951366893)
(0.2560243825 0 1.504232543)
(0.2628476626 0 1.552542421)
(0.2056631667 0 1.621480216)
(0.2673794695 0 1.588251304)
(0.2302766743 0 1.72621467)
(0.1468866099 0 -0.1892901151)
(0.401485498 0 -0.5935119352)
(0.5966681011 0 -0.8894817721)
(0.1628674893 0 -0.2067509066)
(0.308606773 0 0.8963758861)
(0.3084310623 0 0.9453872017)
(0.2844652553 0 1.230446062)
(1.517864048 0 -1.690358268)
(2.213410316 0 -1.718817009)
(2.923918724 0 -1.495613975)
(2.714445156 0 -1.827201129)
(3.743255958 0 -1.01220627)
(0.8546932018 0 0.6424048392)
(1.207879953 0 1.22545844)
(0.5366349613 0 0.3521600543)
(0.4690926585 0 0.3673646549)
(0.4489673593 0 0.4352785229)
(0.4123935053 0 0.3876502884)
(0.3738627216 0 0.428626714)
(0.3468429076 0 0.5130023438)
(0.3363679685 0 0.6593197309)
(0.7506701109 0 0.5264100231)
(0.4342648796 0 0.3181723676)
(0.3097477375 0 0.2163774226)
(0.3192306559 0 0.2197771774)
(0.2729311769 0 0.1392365323)
(0.2634830314 0 0.07381535178)
(0.2829171096 0 0.1029622342)
(0.2949880129 0 0.09406731584)
(0.3519794016 0 0.1383085516)
(0.4209816529 0 0.1146275896)
(0.4025738554 0 0.1269625296)
(0.4810205341 0 0.09693833368)
(0.4890510086 0 0.08349249276)
(0.5097028907 0 0.05178682088)
(0.4893677689 0 0.08278451775)
(0.4757645516 0 0.06901400822)
(0.47463544 0 0.1079198233)
(0.4944335169 0 0.1633177809)
(0.5557951164 0 0.2631828263)
(-0.6392614911 0 -0.3744759922)