/*--------------------------------*- C++ -*----------------------------------*\
| =========                 |                                                 |
| \\      /  F ield         | OpenFOAM: The Open Source CFD Toolbox           |
|  \\    /   O peration     | Version:  2.1.x                                 |
|   \\  /    A nd           | Web:      www.OpenFOAM.org                      |
|    \\/     M anipulation  |                                                 |
\*---------------------------------------------------------------------------*/
FoamFile
{
    version     2.0;
    format      ascii;
    class       scalarField;
    location    "0.8";
    object      age;
}
// * * * * * * * * * * * * * * * * * * * * * * * * * * * * * * * * * * * * * //


29
(
0.006026332409
0.005810453612
0.005206201348
0.005017883584
0.004813716662
0.004606388371
0.004409825279
0.004211017995
0.004012003447
0.003808523078
0.003609494958
0.003406704122
0.003213314806
0.003005401629
0.002808060481
0.002610269143
0.00240289927
0.002210554029
0.002004315489
0.001806294379
0.001606460914
0.001404349772
0.00120735295
0.001007619651
0.000804613164
0.0006060598937
0.0004042912343
0.0002084357284
6.133411354e-06
)


// ************************************************************************* //
