/*--------------------------------*- C++ -*----------------------------------*\
| =========                 |                                                 |
| \\      /  F ield         | OpenFOAM: The Open Source CFD Toolbox           |
|  \\    /   O peration     | Version:  2.1.x                                 |
|   \\  /    A nd           | Web:      www.OpenFOAM.org                      |
|    \\/     M anipulation  |                                                 |
\*---------------------------------------------------------------------------*/
FoamFile
{
    version     2.0;
    format      ascii;
    class       scalarField;
    location    "0.8";
    object      d;
}
// * * * * * * * * * * * * * * * * * * * * * * * * * * * * * * * * * * * * * //


29
(
0.0005087135035
0.0006214827121
0.000500260185
0.0006371359757
0.0005576790432
0.0006766788115
0.001169055335
0.0008073874198
0.0005001634044
0.0005077214171
0.0006640936799
0.0005010850535
0.000509318679
0.0006285442221
0.0006608569714
0.0005374149214
0.0007256350384
0.0005654240617
0.0006646608944
0.0005003604761
0.0005478998099
0.000755227151
0.000572123771
0.0005154928974
0.0005008306255
0.0005329845241
0.0005704761391
0.0005030162464
0.0005232657854
)


// ************************************************************************* //
