/*--------------------------------*- C++ -*----------------------------------*\
| =========                 |                                                 |
| \\      /  F ield         | OpenFOAM: The Open Source CFD Toolbox           |
|  \\    /   O peration     | Version:  2.1.x                                 |
|   \\  /    A nd           | Web:      www.OpenFOAM.org                      |
|    \\/     M anipulation  |                                                 |
\*---------------------------------------------------------------------------*/
FoamFile
{
    version     2.0;
    format      ascii;
    class       scalarField;
    location    "0.8";
    object      mass0;
}
// * * * * * * * * * * * * * * * * * * * * * * * * * * * * * * * * * * * * * //


29
(
6.893160964e-08
1.256856742e-07
6.555207455e-08
1.354238033e-07
9.081374721e-08
1.622356734e-07
8.36572968e-07
2.755780083e-07
6.551403669e-08
6.852910703e-08
1.533510181e-07
6.58768718e-08
6.917790955e-08
1.300187953e-07
1.511196885e-07
8.126953667e-08
2.000568184e-07
9.465018787e-08
1.537442935e-07
6.559150765e-08
8.61196134e-08
2.255440667e-07
9.805474168e-08
7.172435968e-08
6.577657499e-08
7.927612598e-08
9.721002949e-08
6.664148385e-08
7.501802704e-08
)


// ************************************************************************* //
