/*--------------------------------*- C++ -*----------------------------------*\
| =========                 |                                                 |
| \\      /  F ield         | OpenFOAM: The Open Source CFD Toolbox           |
|  \\    /   O peration     | Version:  2.1.x                                 |
|   \\  /    A nd           | Web:      www.OpenFOAM.org                      |
|    \\/     M anipulation  |                                                 |
\*---------------------------------------------------------------------------*/
FoamFile
{
    version     2.0;
    format      ascii;
    class       scalarField;
    location    "0.8";
    object      nParticle;
}
// * * * * * * * * * * * * * * * * * * * * * * * * * * * * * * * * * * * * * //


29
(
1.904802228
1.152178547
2.182216455
0.9311224845
1.597743468
0.8350792935
0.1634607706
0.5067719702
2.132442858
2.08452389
0.8979877986
2.129668109
1.933320854
1.106399932
0.9031952829
1.683600929
0.7172844596
1.40689974
0.9292719295
2.092182899
1.608840516
0.6214358274
1.393443115
1.931927896
2.14079416
1.737612267
1.439405179
2.038601363
1.847187313
)


// ************************************************************************* //
