/*--------------------------------*- C++ -*----------------------------------*\
| =========                 |                                                 |
| \\      /  F ield         | OpenFOAM: The Open Source CFD Toolbox           |
|  \\    /   O peration     | Version:  2.1.x                                 |
|   \\  /    A nd           | Web:      www.OpenFOAM.org                      |
|    \\/     M anipulation  |                                                 |
\*---------------------------------------------------------------------------*/
FoamFile
{
    version     2.0;
    format      ascii;
    class       Cloud<basicReactingParcel>;
    location    "0.8";
    object      positions;
}
// * * * * * * * * * * * * * * * * * * * * * * * * * * * * * * * * * * * * * //

29
(
(0.007426581846 0.000681538123 0.02029466144) 127582
(0.01424334916 0.0007055382297 0.004471865659) 1861
(0.01917694045 0.002011369895 0.01240077402) 82135
(0.01019245078 0.001209878002 0.01373221128) 91470
(0.01364053217 0.001958843604 0.01537825363) 101494
(0.008583708775 0.00286254587 0.01406744114) 92048
(0.01200834754 0.002745500566 0.0130320445) 87174
(0.01360655927 0.003425454182 0.0118158391) 82482
(0.009519562312 0.004642451447 0.01017841389) 73039
(0.01723394186 0.005998691784 0.009913215853) 68599
(0.01439304526 0.005490343844 0.01420941801) 10492
(0.01299488779 0.005863245412 0.01177112322) 83260
(0.01296219841 0.006617648538 0.01051606132) 73660
(0.01010248487 0.008221183961 0.008666163668) 5428
(0.01287802445 0.007598002137 0.01281904992) 9080
(0.0145202451 0.008460782893 0.01225425079) 84061
(0.0129294068 0.008806601623 0.01263054223) 89138
(0.01543773314 0.01014439763 0.01156978153) 79560
(0.01111218527 0.01041332401 0.01421988434) 10698
(0.01253308462 0.01175645877 0.009156213394) 6290
(0.01285440051 0.01121911032 0.01208350988) 84829
(0.01266718771 0.01181053037 0.01291336974) 9260
(0.01360534003 0.01266869077 0.01337820829) 10041
(0.01368453966 0.01350077859 0.01370900895) 10071
(0.01214932791 0.01401928305 0.01382874975) 95213
(0.01146172109 0.01450922186 0.01249513685) 85600
(0.01205304791 0.01502397044 0.01306334978) 90508
(0.01259092621 0.01538181245 0.01251947237) 9380
(0.01249907072 0.01598190519 0.01250320647) 90701
)


// ************************************************************************* //
