/*--------------------------------*- C++ -*----------------------------------*\
| =========                 |                                                 |
| \\      /  F ield         | OpenFOAM: The Open Source CFD Toolbox           |
|  \\    /   O peration     | Version:  2.1.x                                 |
|   \\  /    A nd           | Web:      www.OpenFOAM.org                      |
|    \\/     M anipulation  |                                                 |
\*---------------------------------------------------------------------------*/
FoamFile
{
    version     2.0;
    format      ascii;
    class       vectorField;
    location    "0.8";
    object      U;
}
// * * * * * * * * * * * * * * * * * * * * * * * * * * * * * * * * * * * * * //


29
(
(-0.8274332777 -2.527726919 1.271245947)
(0.2963249471 -2.628072239 -1.364578327)
(1.262982239 -2.671457501 -0.01876917392)
(-0.4551184548 -2.941607175 0.2430293095)
(0.2340858195 -2.905380385 0.5907403403)
(-0.8428024021 -2.849784337 0.3373199488)
(-0.1110669716 -3.015888443 0.1201917528)
(0.2611592188 -2.988356218 -0.1614689166)
(-0.7341408244 -2.817213539 -0.5718526324)
(1.229404642 -2.615975794 -0.6717878102)
(0.5207893028 -2.908963299 0.4702722287)
(0.1438192493 -2.96251852 -0.2118187474)
(0.1425162162 -2.908731218 -0.6117360618)
(-0.7926929571 -2.586652817 -1.267585352)
(0.1338815096 -2.98943277 0.1129950333)
(0.7686115086 -2.881128365 -0.09349641147)
(0.1779696315 -2.993132529 0.05410382953)
(1.32173239 -2.645376357 -0.4185199354)
(-0.6897165859 -2.786312404 0.8547486435)
(0.01821877734 -2.345670741 -1.841330135)
(0.2196944894 -2.971591618 -0.2581841272)
(0.1187795453 -2.983346145 0.2936810927)
(0.9128241858 -2.757043637 0.7252517267)
(1.172225462 -2.478207263 1.19644037)
(-0.4347878628 -2.45980514 1.647477155)
(-1.710347579 -2.458746937 -0.008011022741)
(-1.104417978 -2.413780629 1.392036499)
(0.4359574237 -2.965032507 0.09336277094)
(-0.1515072516 -2.950169547 0.5227723908)
)


// ************************************************************************* //
