/*--------------------------------*- C++ -*----------------------------------*\
| =========                 |                                                 |
| \\      /  F ield         | OpenFOAM: The Open Source CFD Toolbox           |
|  \\    /   O peration     | Version:  2.1.x                                 |
|   \\  /    A nd           | Web:      www.OpenFOAM.org                      |
|    \\/     M anipulation  |                                                 |
\*---------------------------------------------------------------------------*/
FoamFile
{
    version     2.0;
    format      ascii;
    class       scalarField;
    location    "0.7";
    object      age;
}
// * * * * * * * * * * * * * * * * * * * * * * * * * * * * * * * * * * * * * //


30
(
0.006015018745
0.005829482696
0.005446194692
0.005243873875
0.005025486301
0.004832728511
0.004616574976
0.004428672516
0.004210476951
0.004048488027
0.003851101612
0.003605434767
0.003407081934
0.003223769444
0.00303201492
0.002844581271
0.002615944973
0.002434645346
0.002214236673
0.002027858624
0.00182582455
0.001608137277
0.00144027679
0.001248315237
0.001050556855
0.0008326790097
0.0006169491649
0.0004097496596
0.0002080687137
3.026454017e-05
)


// ************************************************************************* //
