/*--------------------------------*- C++ -*----------------------------------*\
| =========                 |                                                 |
| \\      /  F ield         | OpenFOAM: The Open Source CFD Toolbox           |
|  \\    /   O peration     | Version:  2.1.x                                 |
|   \\  /    A nd           | Web:      www.OpenFOAM.org                      |
|    \\/     M anipulation  |                                                 |
\*---------------------------------------------------------------------------*/
FoamFile
{
    version     2.0;
    format      ascii;
    class       scalarField;
    location    "0.7";
    object      d;
}
// * * * * * * * * * * * * * * * * * * * * * * * * * * * * * * * * * * * * * //


30
(
0.0005687011159
0.0005358490629
0.0008485082883
0.0005086023367
0.0005314244376
0.0005004622183
0.0005569540578
0.0006981183444
0.0005537715733
0.0005858004503
0.0005117002055
0.0005139889621
0.0005696176851
0.0005040073209
0.000511574983
0.0007661955616
0.0005410768496
0.0005034161871
0.0005080498936
0.0005450953057
0.0005058712275
0.0005157457736
0.0005489024701
0.0006450609835
0.0007898615308
0.0005005303333
0.0005931751077
0.0005087756829
0.0006279800952
0.0009585399536
)


// ************************************************************************* //
