/*--------------------------------*- C++ -*----------------------------------*\
| =========                 |                                                 |
| \\      /  F ield         | OpenFOAM: The Open Source CFD Toolbox           |
|  \\    /   O peration     | Version:  2.1.x                                 |
|   \\  /    A nd           | Web:      www.OpenFOAM.org                      |
|    \\/     M anipulation  |                                                 |
\*---------------------------------------------------------------------------*/
FoamFile
{
    version     2.0;
    format      ascii;
    class       scalarField;
    location    "0.7";
    object      mass0;
}
// * * * * * * * * * * * * * * * * * * * * * * * * * * * * * * * * * * * * * //


30
(
9.630544972e-08
8.056122271e-08
3.198651233e-07
6.888642959e-08
7.858201976e-08
6.563152749e-08
9.046003254e-08
1.781499778e-07
8.891818669e-08
1.052562095e-07
7.015286248e-08
7.109842829e-08
9.677184384e-08
6.703616428e-08
7.010137197e-08
2.35514428e-07
8.294218657e-08
6.68005672e-08
6.866220034e-08
8.480392398e-08
6.778265229e-08
7.182996513e-08
8.659327751e-08
1.405403224e-07
2.580188945e-07
6.565832931e-08
1.092816832e-07
6.895688899e-08
1.296690285e-07
4.611362691e-07
)


// ************************************************************************* //
