/*--------------------------------*- C++ -*----------------------------------*\
| =========                 |                                                 |
| \\      /  F ield         | OpenFOAM: The Open Source CFD Toolbox           |
|  \\    /   O peration     | Version:  2.1.x                                 |
|   \\  /    A nd           | Web:      www.OpenFOAM.org                      |
|    \\/     M anipulation  |                                                 |
\*---------------------------------------------------------------------------*/
FoamFile
{
    version     2.0;
    format      ascii;
    class       scalarField;
    location    "0.7";
    object      nParticle;
}
// * * * * * * * * * * * * * * * * * * * * * * * * * * * * * * * * * * * * * //


30
(
1.505833124
1.660936688
0.4009357768
2.10802246
1.930230686
1.820589129
1.726374166
0.7039544071
1.816293881
1.082236909
1.955531641
2.068030079
1.450045236
2.047255585
2.003001619
0.5545027407
1.925923406
1.778627068
2.357002484
1.404018003
2.253805698
1.954433766
1.436050536
0.9580861541
0.5334415736
2.272585349
1.381087626
1.82025244
1.119947015
0.2658850031
)


// ************************************************************************* //
