/*--------------------------------*- C++ -*----------------------------------*\
| =========                 |                                                 |
| \\      /  F ield         | OpenFOAM: The Open Source CFD Toolbox           |
|  \\    /   O peration     | Version:  2.1.x                                 |
|   \\  /    A nd           | Web:      www.OpenFOAM.org                      |
|    \\/     M anipulation  |                                                 |
\*---------------------------------------------------------------------------*/
FoamFile
{
    version     2.0;
    format      ascii;
    class       Cloud<basicReactingParcel>;
    location    "0.7";
    object      positions;
}
// * * * * * * * * * * * * * * * * * * * * * * * * * * * * * * * * * * * * * //

30
(
(0.01987402566 0.001858213487 0.004324148894) 41547
(0.0167891947 0.0007778906469 0.01967257759) 123821
(0.01659184333 0.001247990392 0.006763469829) 53335
(0.0159651066 0.001401440766 0.008148363215) 57888
(0.01251228607 0.001002902211 0.01238398166) 81693
(0.01127282101 0.001646860997 0.01225172862) 81876
(0.01429721736 0.002946724869 0.01656385261) 106720
(0.01623785258 0.003265119246 0.01245442072) 82505
(0.01651121766 0.004076897117 0.01247452564) 82704
(0.01234958114 0.003968474644 0.01112264674) 77765
(0.009527950188 0.006538611185 0.006702456694) 54916
(0.008897773216 0.005857200458 0.01276662921) 88125
(0.01122063466 0.007174181832 0.01742241416) 112516
(0.01755733993 0.008185598866 0.01494005133) 98787
(0.0157594387 0.008370657084 0.008869352169) 64616
(0.01456510519 0.008301124725 0.01554060331) 103659
(0.01437237353 0.008411850436 0.01208309144) 84061
(0.01288033102 0.008744232743 0.01202257092) 8390
(0.0114420295 0.009494822388 0.0118331048) 84420
(0.01364292934 0.01037115663 0.01053512153) 74840
(0.0117806437 0.01162960115 0.0156959855) 104424
(0.01233574132 0.01162552146 0.01049639064) 75025
(0.01469791049 0.01260465735 0.01100231707) 80332
(0.01302284539 0.01246908315 0.01137424772) 80128
(0.01215700942 0.01294588237 0.01180053524) 85211
(0.01238133526 0.01353922962 0.01289667015) 90307
(0.01166273111 0.01435770949 0.01234480536) 85606
(0.01219734134 0.01481015515 0.01254698259) 90505
(0.0125721866 0.01550937147 0.01287892953) 9380
(0.01251688392 0.01592084486 0.01254114517) 90707
)


// ************************************************************************* //
