/*--------------------------------*- C++ -*----------------------------------*\
| =========                 |                                                 |
| \\      /  F ield         | OpenFOAM: The Open Source CFD Toolbox           |
|  \\    /   O peration     | Version:  2.1.x                                 |
|   \\  /    A nd           | Web:      www.OpenFOAM.org                      |
|    \\/     M anipulation  |                                                 |
\*---------------------------------------------------------------------------*/
FoamFile
{
    version     2.0;
    format      ascii;
    class       vectorField;
    location    "0.7";
    object      U;
}
// * * * * * * * * * * * * * * * * * * * * * * * * * * * * * * * * * * * * * //


30
(
(1.208046141 -2.346232404 -1.339404803)
(0.7244182219 -2.599468223 1.211403602)
(0.745740764 -2.715315638 -1.045485871)
(0.6508700906 -2.767828569 -0.8173919475)
(0.002411723183 -2.968541497 -0.0227740984)
(-0.2503277977 -2.951547418 -0.05064397957)
(0.3847808556 -2.817352721 0.8700631966)
(0.8372442412 -2.87427402 -0.01020933555)
(0.9424988747 -2.822217856 -0.005985603876)
(-0.03680254569 -2.963630874 -0.3369930169)
(-0.763272229 -2.448779049 -1.488906338)
(-0.9888977443 -2.80218513 0.0731961208)
(-0.3723799033 -2.585681578 1.432747981)
(1.553988187 -2.41704904 0.7497639063)
(1.065679652 -2.509383389 -1.18704718)
(0.7226949392 -2.708323986 1.064075879)
(0.7108055419 -2.893606495 -0.1582701912)
(0.1550970125 -2.97091043 -0.1946930978)
(-0.4747274513 -2.929943456 -0.29924602)
(0.5606139658 -2.771044296 -0.9637851435)
(-0.3918785476 -2.38990475 1.74105399)
(-0.1016724578 -2.715714232 -1.240189452)
(1.520287752 -2.355736768 -1.035942557)
(0.4177577721 -2.82748653 -0.8994853501)
(-0.325953335 -2.907696343 -0.6647205138)
(-0.1421491638 -2.951981267 0.4751733976)
(-1.355119425 -2.661186119 -0.2511824795)
(-0.7377267438 -2.902346784 0.1145194774)
(0.3467671279 -2.357995873 1.820286568)
(0.5578455279 -2.615538987 1.35943848)
)


// ************************************************************************* //
