/*--------------------------------*- C++ -*----------------------------------*\
| =========                 |                                                 |
| \\      /  F ield         | OpenFOAM: The Open Source CFD Toolbox           |
|  \\    /   O peration     | Version:  2.1.x                                 |
|   \\  /    A nd           | Web:      www.OpenFOAM.org                      |
|    \\/     M anipulation  |                                                 |
\*---------------------------------------------------------------------------*/
FoamFile
{
    version     2.0;
    format      ascii;
    class       scalarField;
    location    "0.4";
    object      age;
}
// * * * * * * * * * * * * * * * * * * * * * * * * * * * * * * * * * * * * * //


29
(
0.005868354858
0.005643010439
0.005224659042
0.005005777559
0.004812317373
0.00462961616
0.004439065422
0.004213219633
0.00403845914
0.003815714609
0.003624299586
0.003437328168
0.003220231025
0.00300813013
0.002829901369
0.00263005495
0.002442139422
0.002237457898
0.002034774506
0.001826309607
0.001613177936
0.001417641217
0.00120711961
0.001029597749
0.0008197450543
0.0006082176865
0.0004289042089
0.0002173573408
1.484165351e-05
)


// ************************************************************************* //
