/*--------------------------------*- C++ -*----------------------------------*\
| =========                 |                                                 |
| \\      /  F ield         | OpenFOAM: The Open Source CFD Toolbox           |
|  \\    /   O peration     | Version:  2.1.x                                 |
|   \\  /    A nd           | Web:      www.OpenFOAM.org                      |
|    \\/     M anipulation  |                                                 |
\*---------------------------------------------------------------------------*/
FoamFile
{
    version     2.0;
    format      ascii;
    class       scalarField;
    location    "0.4";
    object      d;
}
// * * * * * * * * * * * * * * * * * * * * * * * * * * * * * * * * * * * * * //


29
(
0.0005732243143
0.0005018207266
0.0005084121606
0.0005034902945
0.0005452398316
0.0008890109543
0.0005058448503
0.0005000616115
0.0005338952172
0.0005036740928
0.0009462562817
0.0005011092066
0.0007095741555
0.0005014137548
0.0005554961945
0.0005101752476
0.0005440062067
0.0005716700906
0.0005286894732
0.0005054457414
0.0005049643229
0.0005291903229
0.0006661598984
0.0007259222204
0.0005388479393
0.0006878221621
0.0005582973512
0.0005248038673
0.0005283714748
)


// ************************************************************************* //
