/*--------------------------------*- C++ -*----------------------------------*\
| =========                 |                                                 |
| \\      /  F ield         | OpenFOAM: The Open Source CFD Toolbox           |
|  \\    /   O peration     | Version:  2.1.x                                 |
|   \\  /    A nd           | Web:      www.OpenFOAM.org                      |
|    \\/     M anipulation  |                                                 |
\*---------------------------------------------------------------------------*/
FoamFile
{
    version     2.0;
    format      ascii;
    class       scalarField;
    location    "0.4";
    object      mass0;
}
// * * * * * * * * * * * * * * * * * * * * * * * * * * * * * * * * * * * * * //


29
(
9.862168826e-08
6.616745139e-08
6.880918463e-08
6.68300725e-08
8.487139629e-08
3.678916742e-07
6.777204983e-08
6.54740447e-08
7.968319021e-08
6.690328783e-08
4.436341288e-07
6.588639839e-08
1.870647636e-07
6.60065984e-08
8.975153536e-08
6.952752569e-08
8.429662487e-08
9.782166145e-08
7.737499108e-08
6.7611761e-08
6.74187518e-08
7.759510117e-08
1.547868558e-07
2.002944397e-07
8.192138787e-08
1.70383336e-07
9.111614237e-08
7.5681495e-08
7.723545552e-08
)


// ************************************************************************* //
