/*--------------------------------*- C++ -*----------------------------------*\
| =========                 |                                                 |
| \\      /  F ield         | OpenFOAM: The Open Source CFD Toolbox           |
|  \\    /   O peration     | Version:  2.1.x                                 |
|   \\  /    A nd           | Web:      www.OpenFOAM.org                      |
|    \\/     M anipulation  |                                                 |
\*---------------------------------------------------------------------------*/
FoamFile
{
    version     2.0;
    format      ascii;
    class       scalarField;
    location    "0.4";
    object      nParticle;
}
// * * * * * * * * * * * * * * * * * * * * * * * * * * * * * * * * * * * * * //


29
(
1.31688969
2.387264032
2.035989415
2.10883896
1.736293959
0.3710512246
2.11590914
1.996433968
1.602067288
2.145971658
0.3120874983
2.134859689
0.7630388353
2.025842421
1.507602365
2.179921159
1.50361202
1.469906211
1.810330083
2.048427965
2.281026557
1.750113728
0.8817725792
0.6027509971
1.741661675
0.8988451795
1.402463315
1.791596786
1.737310032
)


// ************************************************************************* //
