/*--------------------------------*- C++ -*----------------------------------*\
| =========                 |                                                 |
| \\      /  F ield         | OpenFOAM: The Open Source CFD Toolbox           |
|  \\    /   O peration     | Version:  2.1.x                                 |
|   \\  /    A nd           | Web:      www.OpenFOAM.org                      |
|    \\/     M anipulation  |                                                 |
\*---------------------------------------------------------------------------*/
FoamFile
{
    version     2.0;
    format      ascii;
    class       Cloud<basicReactingParcel>;
    location    "0.4";
    object      positions;
}
// * * * * * * * * * * * * * * * * * * * * * * * * * * * * * * * * * * * * * //

29
(
(0.009323220417 0.001861532284 0.02230107022) 135119
(0.009314750189 0.001677032817 0.004349171268) 1901
(0.004042486594 0.003513438735 0.01628141444) 106812
(0.01179091922 0.001178344457 0.01407297084) 91486
(0.01219178906 0.003518019389 0.005413399316) 45800
(0.01184997825 0.002164729764 0.01120132616) 7309
(0.01970754986 0.004994578744 0.01387998761) 92922
(0.01620809846 0.004375408328 0.009502597912) 5975
(0.01303739851 0.003963390326 0.01187068256) 82672
(0.01370472781 0.005232139623 0.00899386114) 63691
(0.009873504633 0.006105295246 0.01619987514) 107765
(0.01202294029 0.005793081013 0.01349267684) 93052
(0.0124424047 0.006343456945 0.01249721613) 83453
(0.009656077865 0.008986249185 0.007666742708) 60193
(0.01470257782 0.008116385222 0.01033893529) 74256
(0.01551550551 0.008757751995 0.0119755912) 84259
(0.01235005425 0.009485712601 0.009195061938) 69727
(0.0155368892 0.0100677831 0.01317025523) 89361
(0.01551094828 0.01071900887 0.01216122231) 84657
(0.01111720816 0.01104596518 0.01065305933) 75015
(0.01253391942 0.01120403086 0.01306878681) 89729
(0.01218583458 0.01179547656 0.01199440173) 85015
(0.01127527966 0.01309539357 0.0107228573) 75410
(0.01354803055 0.01359632678 0.01412981176) 95224
(0.01245016744 0.0135463809 0.01237592857) 85411
(0.01241502746 0.01423967683 0.0129715413) 90313
(0.0122686576 0.01473887825 0.012602254) 90505
(0.0126804808 0.01542488437 0.01274828446) 9380
(0.01249359433 0.01595595494 0.01249879536) 85805
)


// ************************************************************************* //
