/*--------------------------------*- C++ -*----------------------------------*\
| =========                 |                                                 |
| \\      /  F ield         | OpenFOAM: The Open Source CFD Toolbox           |
|  \\    /   O peration     | Version:  2.1.x                                 |
|   \\  /    A nd           | Web:      www.OpenFOAM.org                      |
|    \\/     M anipulation  |                                                 |
\*---------------------------------------------------------------------------*/
FoamFile
{
    version     2.0;
    format      ascii;
    class       vectorField;
    location    "0.4";
    object      U;
}
// * * * * * * * * * * * * * * * * * * * * * * * * * * * * * * * * * * * * * //


29
(
(-0.5337206051 -2.404101667 1.646646546)
(-0.5551791436 -2.524066666 -1.420664119)
(-1.594571138 -2.379796276 0.7129441041)
(-0.139590794 -2.942348594 0.3096575915)
(-0.06324860085 -2.585061066 -1.454255887)
(-0.1395748226 -2.993521503 -0.2788555465)
(1.602835679 -2.469195683 0.3068856165)
(0.869197859 -2.745549024 -0.7026068769)
(0.1316318417 -2.968122138 -0.1541467107)
(0.3122143655 -2.809325747 -0.9086425256)
(-0.7216185904 -2.736390281 1.016525182)
(-0.1373834614 -2.956300191 0.2858706742)
(-0.01778328377 -2.997462405 -0.0008595562314)
(-0.9370388899 -2.325770956 -1.592501423)
(0.7727346699 -2.779787077 -0.7581705456)
(1.13787636 -2.745790032 -0.1978813759)
(-0.06100635346 -2.662446331 -1.344634429)
(1.349886428 -2.647916997 0.297926061)
(1.471498143 -2.590977349 -0.1655660275)
(-0.7530985258 -2.707124776 -1.005884077)
(0.02092669321 -2.966896802 0.3509147889)
(-0.2207481515 -2.961350676 -0.3552583326)
(-1.012175866 -2.40653638 -1.468727917)
(1.016081456 -2.33554029 1.580127122)
(-0.06065536294 -2.990625929 -0.1510176651)
(-0.1395452274 -2.893955658 0.7743835576)
(-0.5387752594 -2.939230268 0.2381401987)
(0.8298059328 -2.645389995 1.141550355)
(-0.4315715757 -2.967586546 -0.08116050105)
)


// ************************************************************************* //
