/*--------------------------------*- C++ -*----------------------------------*\
| =========                 |                                                 |
| \\      /  F ield         | OpenFOAM: The Open Source CFD Toolbox           |
|  \\    /   O peration     | Version:  2.1.x                                 |
|   \\  /    A nd           | Web:      www.OpenFOAM.org                      |
|    \\/     M anipulation  |                                                 |
\*---------------------------------------------------------------------------*/
FoamFile
{
    version     2.0;
    format      ascii;
    class       scalarField;
    location    "1.9";
    object      age;
}
// * * * * * * * * * * * * * * * * * * * * * * * * * * * * * * * * * * * * * //


31
(
0.006419673611
0.005625782293
0.005422306067
0.005211609177
0.005039047934
0.004837242432
0.004632952229
0.004402786582
0.004203651936
0.004007740732
0.003809581109
0.003608227073
0.003412065737
0.003208638797
0.003014870585
0.00281135326
0.002613013392
0.00242375205
0.002208674365
0.002018313503
0.001819665397
0.001624906479
0.00143322853
0.001215020023
0.001020886896
0.0008252293623
0.0008120608086
0.0006298314915
0.0004165589612
0.000230010588
1.740620666e-05
)


// ************************************************************************* //
