/*--------------------------------*- C++ -*----------------------------------*\
| =========                 |                                                 |
| \\      /  F ield         | OpenFOAM: The Open Source CFD Toolbox           |
|  \\    /   O peration     | Version:  2.1.x                                 |
|   \\  /    A nd           | Web:      www.OpenFOAM.org                      |
|    \\/     M anipulation  |                                                 |
\*---------------------------------------------------------------------------*/
FoamFile
{
    version     2.0;
    format      ascii;
    class       scalarField;
    location    "1.9";
    object      d;
}
// * * * * * * * * * * * * * * * * * * * * * * * * * * * * * * * * * * * * * //


31
(
0.0005015693067
0.0005557679978
0.000502012418
0.0005709490317
0.0006312074667
0.0006819613342
0.0008507713964
0.0005781541777
0.0005434995676
0.0005000027561
0.0005323418995
0.0005502873892
0.0005000191899
0.0005153764474
0.0005000004906
0.0005413860922
0.000749763906
0.0005601925307
0.0005840249488
0.0005546725753
0.0005001584282
0.00117834003
0.0005734908661
0.0005044104113
0.0005079036129
0.001192876275
0.0005842646464
0.001136230555
0.0007177172597
0.0005553209661
0.0005006203999
)


// ************************************************************************* //
