/*--------------------------------*- C++ -*----------------------------------*\
| =========                 |                                                 |
| \\      /  F ield         | OpenFOAM: The Open Source CFD Toolbox           |
|  \\    /   O peration     | Version:  2.1.x                                 |
|   \\  /    A nd           | Web:      www.OpenFOAM.org                      |
|    \\/     M anipulation  |                                                 |
\*---------------------------------------------------------------------------*/
FoamFile
{
    version     2.0;
    format      ascii;
    class       scalarField;
    location    "1.9";
    object      mass0;
}
// * * * * * * * * * * * * * * * * * * * * * * * * * * * * * * * * * * * * * //


31
(
6.606804848e-08
8.988334561e-08
6.624330666e-08
9.745197486e-08
1.316785408e-07
1.660649112e-07
3.224313508e-07
1.011881432e-07
8.406132497e-08
6.545092927e-08
7.898971957e-08
8.72503752e-08
6.545738308e-08
7.167576302e-08
6.54500396e-08
8.308448015e-08
2.206846929e-07
9.204719616e-08
1.043020447e-07
8.935291043e-08
6.551208127e-08
8.566640004e-07
9.875933075e-08
6.719713369e-08
6.860290852e-08
8.887606651e-07
1.044305215e-07
7.680650682e-07
1.935792457e-07
8.966662718e-08
6.569377986e-08
)


// ************************************************************************* //
