/*--------------------------------*- C++ -*----------------------------------*\
| =========                 |                                                 |
| \\      /  F ield         | OpenFOAM: The Open Source CFD Toolbox           |
|  \\    /   O peration     | Version:  2.1.x                                 |
|   \\  /    A nd           | Web:      www.OpenFOAM.org                      |
|    \\/     M anipulation  |                                                 |
\*---------------------------------------------------------------------------*/
FoamFile
{
    version     2.0;
    format      ascii;
    class       scalarField;
    location    "1.9";
    object      nParticle;
}
// * * * * * * * * * * * * * * * * * * * * * * * * * * * * * * * * * * * * * //


31
(
2.380775975
1.564725761
2.018305161
1.507096472
0.9937111193
0.8807314751
0.4302635007
1.308918388
1.660762567
2.120814484
1.750859569
1.621280139
2.102586369
1.999248724
2.094860824
1.633212243
0.6740796027
1.461688242
1.345583072
1.48985247
2.247304207
0.1473404467
1.423024185
2.245970978
1.950762394
0.1512175263
1.286943581
0.1769247279
0.7221670311
1.504370509
2.103023287
)


// ************************************************************************* //
