/*--------------------------------*- C++ -*----------------------------------*\
| =========                 |                                                 |
| \\      /  F ield         | OpenFOAM: The Open Source CFD Toolbox           |
|  \\    /   O peration     | Version:  2.1.x                                 |
|   \\  /    A nd           | Web:      www.OpenFOAM.org                      |
|    \\/     M anipulation  |                                                 |
\*---------------------------------------------------------------------------*/
FoamFile
{
    version     2.0;
    format      ascii;
    class       Cloud<basicReactingParcel>;
    location    "1.9";
    object      positions;
}
// * * * * * * * * * * * * * * * * * * * * * * * * * * * * * * * * * * * * * //

31
(
(0.01994942705 0.0007019092532 0.02109304327) 131516
(0.009165819256 0.002589404621 0.003009919539) 35241
(0.01028095974 0.001220548765 0.00639860882) 49054
(0.006732671205 0.001939706832 0.01583481954) 101442
(0.005670675288 0.003394199728 0.007880933189) 58522
(0.01531162539 0.002299674291 0.01628610221) 106545
(0.01414378183 0.002421717735 0.01505534197) 101691
(0.01071403027 0.003012097862 0.013693478) 92059
(0.006042943575 0.005300959203 0.01363018491) 92807
(0.01254557931 0.00406047637 0.01321074947) 87575
(0.0160507368 0.007106332264 0.006373693387) 50783
(0.01154885698 0.005273664323 0.01183895796) 83050
(0.01224560514 0.005906007821 0.013875582) 93057
(0.01279560552 0.0064148761 0.01255510155) 88355
(0.01385954729 0.007249369354 0.0141502055) 93463
(0.00970661437 0.008238169058 0.0141267286) 93818
(0.01051491503 0.008523237691 0.0112406101) 79127
(0.01126512787 0.008860015473 0.01287897541) 89124
(0.01208721465 0.00997614174 0.009801225222) 69733
(0.0134462309 0.01024288044 0.01407510234) 94440
(0.01444938356 0.0114577924 0.01021959088) 75041
(0.01359294088 0.0116673002 0.0105399495) 75038
(0.01142419536 0.01199505071 0.01138448408) 80112
(0.01147228557 0.0126994601 0.01136350675) 80308
(0.01134790979 0.01320137077 0.0129408928) 90110
(0.01398549959 0.01505277305 0.01213250134) 85623
(0.01284146967 0.01372859501 0.01330711519) 90317
(0.01160510513 0.01433691161 0.01257646049) 90496
(0.0120900272 0.01485091526 0.01222993999) 85609
(0.01236883001 0.01537897975 0.0127702975) 90699
(0.01250308243 0.01595093845 0.01248238739) 85811
)


// ************************************************************************* //
