/*--------------------------------*- C++ -*----------------------------------*\
| =========                 |                                                 |
| \\      /  F ield         | OpenFOAM: The Open Source CFD Toolbox           |
|  \\    /   O peration     | Version:  2.1.x                                 |
|   \\  /    A nd           | Web:      www.OpenFOAM.org                      |
|    \\/     M anipulation  |                                                 |
\*---------------------------------------------------------------------------*/
FoamFile
{
    version     2.0;
    format      ascii;
    class       vectorField;
    location    "1.9";
    object      U;
}
// * * * * * * * * * * * * * * * * * * * * * * * * * * * * * * * * * * * * * //


31
(
(1.138750152 -2.369892558 1.313568046)
(-0.5842975818 -2.377673861 -1.663086524)
(-0.4027791625 -2.709156937 -1.107466714)
(-1.092697993 -2.689444468 0.631826405)
(-1.341020156 -2.500008878 -0.9070093982)
(0.5759921807 -2.830393145 0.7756244033)
(0.3525688541 -2.935108329 0.5480861111)
(-0.4014002388 -2.940651561 0.2682365467)
(-1.519262827 -2.537969085 0.2659180617)
(0.01123865298 -2.963636491 0.1752520457)
(0.9225228415 -2.32938583 -1.591685922)
(-0.261167239 -2.96299901 -0.1815105839)
(-0.07380681643 -2.945314463 0.3990934692)
(0.09129280819 -2.975995368 0.01701718837)
(0.446928867 -2.891468331 0.5424779857)
(-0.9862553091 -2.754313334 0.5743459489)
(-0.7564376302 -2.862000876 -0.4799038446)
(-0.5063895627 -2.939893422 0.1554081491)
(-0.1859175675 -2.724049749 -1.215521927)
(0.4664075938 -2.847736739 0.7763852278)
(1.06548657 -2.491677282 -1.246417247)
(0.6716767199 -2.670774122 -1.204566796)
(-0.7479870871 -2.791698911 -0.7755976061)
(-0.8427985762 -2.71273734 -0.932004911)
(-1.125128984 -2.738247435 0.4305750236)
(1.798832889 -2.362104263 -0.4450143808)
(0.4196765002 -2.795709923 0.9919688579)
(-1.420020493 -2.64218402 0.1213276169)
(-0.9834428751 -2.758567654 -0.6478200263)
(-0.5699188016 -2.69948516 1.174412101)
(0.1770725026 -2.818524764 -1.011770802)
)


// ************************************************************************* //
