/*--------------------------------*- C++ -*----------------------------------*\
| =========                 |                                                 |
| \\      /  F ield         | OpenFOAM: The Open Source CFD Toolbox           |
|  \\    /   O peration     | Version:  2.1.x                                 |
|   \\  /    A nd           | Web:      www.OpenFOAM.org                      |
|    \\/     M anipulation  |                                                 |
\*---------------------------------------------------------------------------*/
FoamFile
{
    version     2.0;
    format      ascii;
    class       surfaceScalarField;
    location    "0.7";
    object      phi;
}
// * * * * * * * * * * * * * * * * * * * * * * * * * * * * * * * * * * * * * //

dimensions      [1 1 -1 0 0 0 0];

internalField   nonuniform List<scalar> 
5536
(
1.971129102e-09
7.208453959e-11
-3.18001767e-09
3.245410171e-09
8.787984207e-10
-2.569390358e-09
1.817592836e-09
5.922047447e-10
-1.252560169e-09
8.995638615e-10
3.290642005e-10
-6.938885274e-10
5.622256372e-10
1.973478092e-11
-6.756464099e-09
-3.15956862e-09
1.968728967e-09
-2.823691012e-09
-8.670269489e-10
7.926897275e-10
5.956243706e-10
-7.233065419e-10
-3.264442529e-10
2.733183234e-10
2.25799276e-10
-1.660316267e-10
-2.63184792e-10
5.003933064e-11
4.899282637e-10
8.733998078e-11
-9.013492756e-10
-7.080564593e-10
1.130485403e-09
4.185248337e-10
-9.316523437e-10
-3.885181908e-10
5.8451728e-10
2.629492256e-10
-3.366084363e-10
-1.64552827e-10
2.110692501e-10
1.833322869e-10
-1.920969727e-10
-8.958991716e-12
3.199434817e-10
5.051372065e-10
-7.951760887e-10
-1.855873532e-11
2.007453761e-09
2.978547722e-09
-4.910024577e-09
6.981335232e-11
1.699160593e-08
-2.868125e-08
1.188167429e-08
2.977852061e-08
4.748472745e-08
-2.992860245e-08
-3.397176261e-09
-3.417512626e-09
5.037520843e-09
3.041053049e-09
-2.313181736e-09
-2.567655146e-09
3.431018477e-09
2.18627583e-09
-2.118926925e-09
-1.937925142e-09
2.181712275e-09
1.78524471e-09
-1.668755928e-09
-1.594602467e-09
5.587684526e-10
1.299384791e-09
-1.983180091e-10
-9.032645237e-10
-4.056288561e-11
7.880631293e-10
3.295838854e-10
-7.735556823e-10
-2.457106755e-10
7.481298484e-10
4.163174774e-10
-6.798820477e-10
-3.427716193e-10
5.877598073e-10
4.187333596e-10
-4.987742937e-10
-2.899847789e-10
4.726562874e-10
5.163965421e-10
-5.879220156e-10
-5.127794848e-10
9.600077221e-10
1.446351845e-09
-1.799214261e-09
-2.150100505e-09
3.41015038e-09
5.049377128e-09
-6.161926111e-09
-8.451350182e-09
1.0418864e-08
1.456688499e-08
-1.628911734e-08
-2.785222792e-08
2.283569432e-08
3.207147741e-08
-2.67154986e-08
-4.010267709e-08
2.147360304e-08
3.099759915e-08
-1.218763493e-08
1.540219073e-10
1.193954667e-10
-3.188757127e-10
2.319480553e-13
-4.289624511e-10
-4.711223307e-13
9.69030071e-11
2.979938607e-09
-1.943200479e-09
-2.590145699e-09
1.883203563e-09
1.788266846e-09
-1.283398823e-09
-1.447619799e-09
1.434927369e-09
1.238133015e-09
-1.094137442e-09
-1.138382626e-09
1.510458066e-09
1.202022249e-09
-1.219231295e-09
-1.524402129e-09
1.194183824e-09
2.180419664e-09
-6.765008374e-10
-2.935487868e-09
-3.841214822e-10
3.037911166e-09
1.217321938e-09
-2.535826595e-09
-7.063885916e-10
2.007371792e-09
1.247659195e-09
-1.627017947e-09
-6.616351248e-10
1.344309646e-09
1.046913576e-09
-1.135758022e-09
-6.506423131e-10
1.046762686e-09
1.112842077e-09
-1.153255635e-09
-1.092631029e-09
1.587597356e-09
2.205928589e-09
-2.609220206e-09
-3.16658054e-09
4.649095631e-09
6.153069612e-09
-8.142563865e-09
-8.81967891e-09
1.287236423e-08
1.443348496e-08
-1.723955307e-08
-1.972533444e-08
1.932288187e-08
2.390520085e-08
-1.99097348e-08
-3.19800131e-08
2.079566369e-08
2.936095248e-08
-1.792661698e-08
-2.274755962e-08
1.14335599e-08
1.611154349e-08
-4.742431517e-09
5.587766044e-10
4.480501855e-10
-1.143791509e-09
7.604918923e-11
8.930352069e-10
-7.007933292e-11
-1.81792851e-09
-1.051313692e-11
3.302859154e-11
-7.385175628e-11
1.41645323e-11
-3.671738169e-12
-1.794175601e-11
-1.747883265e-11
3.36675833e-09
4.803796386e-09
-2.567571229e-09
-2.239720655e-09
1.288012651e-09
1.490952563e-09
-9.60351097e-10
-1.273819104e-09
1.018247727e-09
1.200205933e-09
-9.140173158e-10
-1.166415411e-09
1.017863936e-09
1.141758849e-09
-1.155864755e-09
-1.130551263e-09
1.096596417e-09
1.213183908e-09
-1.402436245e-09
-1.6187682e-09
2.218186083e-10
2.948063461e-09
-1.393289883e-10
-5.414125596e-09
-2.161617556e-09
5.063756162e-09
3.298267544e-09
-4.015146973e-09
-2.018533093e-09
3.375554687e-09
3.099266586e-09
-2.816203794e-09
-1.659589879e-09
2.468173517e-09
2.790658846e-09
-2.382752814e-09
-1.927739794e-09
2.751469722e-09
3.657296604e-09
-4.012658838e-09
-4.071397725e-09
6.828953719e-09
7.886190446e-09
-1.137331732e-08
-1.081692751e-08
1.63451257e-08
1.400500122e-08
-1.957680643e-08
-2.053251481e-08
1.998869693e-08
1.531220824e-08
-1.885399325e-08
-2.751919855e-08
1.844751691e-08
2.258707253e-08
-1.84822428e-08
-2.556132532e-08
1.589415813e-08
2.352420691e-08
-1.155180015e-08
-1.107069429e-08
6.802864168e-09
7.150356455e-09
-3.056242748e-09
2.602180765e-09
7.877949487e-10
-5.54635156e-09
2.240757332e-09
2.914319179e-09
-2.934545482e-09
-3.28249927e-09
7.061771418e-10
1.684132063e-10
-3.148480434e-10
-2.231686005e-10
1.435105295e-10
2.126529148e-11
-7.515194823e-11
-1.149571035e-11
4.675429701e-11
5.510371715e-13
-3.136899512e-11
5.933471401e-09
1.130916169e-08
-5.35663257e-09
-6.785839763e-09
2.184069168e-09
3.576167493e-09
-2.126373371e-09
-1.843873802e-09
8.39708139e-10
1.191591713e-09
-9.358330276e-10
-1.048185459e-09
9.026246008e-10
1.14380666e-09
-9.778197569e-10
-1.413217468e-09
1.569030866e-09
1.964641265e-09
-2.284419246e-09
-3.332778611e-09
2.968765081e-09
6.66231682e-09
-7.028277577e-09
-1.199075047e-08
8.352163208e-10
1.873558474e-08
-2.207072279e-09
-3.014505443e-08
-5.686842882e-09
3.720958657e-08
1.015146856e-08
-3.765454784e-08
-5.456447841e-09
3.866186309e-08
1.201750694e-08
-4.185711936e-08
-5.956138131e-09
4.994927985e-08
1.170652465e-08
-6.537503202e-08
-7.552863439e-09
8.593920153e-08
5.532264899e-09
-1.025922425e-07
-1.144158112e-08
1.07283458e-07
1.699999047e-09
-1.004392956e-07
-1.373525861e-08
8.606784183e-08
8.181920313e-09
-6.870918077e-08
-1.14997221e-08
4.721417874e-08
8.672016661e-09
-2.911163283e-08
-2.028515841e-08
2.374450794e-08
2.349378628e-08
-2.600319308e-08
-2.398284026e-08
2.096583423e-08
2.445167274e-08
-1.383632777e-08
-2.706277673e-09
5.931576708e-09
-7.162377238e-10
4.361224993e-09
4.751080418e-09
-7.591789316e-09
-8.572788529e-10
6.458357152e-09
2.427787617e-09
-4.95647062e-09
-9.188283299e-11
2.679059025e-09
8.550183954e-11
-6.313603525e-10
1.936750528e-12
8.402020631e-11
-1.226623481e-11
-4.150186326e-11
1.028011877e-11
4.725302831e-11
-4.704094969e-12
-5.509985873e-11
4.827637363e-12
9.620228115e-12
-3.056277325e-10
3.40959841e-09
4.044819383e-09
-2.102382009e-09
-7.679721637e-09
7.561260862e-09
4.246489817e-09
-3.124330176e-09
-6.180839509e-09
2.366818852e-09
4.523419129e-09
-2.948500069e-09
-3.327664124e-09
1.423125784e-09
2.580234449e-09
-2.951411572e-09
-2.045053054e-09
1.255557809e-09
1.734320793e-09
-2.537738512e-09
-1.979307952e-09
2.151070222e-09
3.468701615e-09
-3.86696824e-09
-8.393216221e-09
5.736834523e-09
2.013884718e-08
-5.475439057e-09
-3.34810391e-08
3.443278706e-09
4.425671297e-08
1.11352861e-09
-5.691517529e-08
-1.162184966e-08
6.733742818e-08
9.288342508e-09
-7.645392674e-08
-1.594712355e-08
8.831626158e-08
7.570446879e-09
-1.024061675e-07
-1.189390977e-08
1.140511451e-07
-6.867076939e-09
-1.120677194e-07
-1.838184705e-11
9.156612465e-08
-2.180700227e-08
-6.049886043e-08
2.620537157e-09
3.102231896e-08
-2.378108548e-08
-7.866077483e-09
-4.760459568e-09
7.28397768e-09
-1.286202564e-08
-3.329067855e-08
-5.302459947e-09
4.238933635e-08
-1.423907555e-08
-3.480026872e-08
-3.700657141e-08
4.917672475e-09
3.51888673e-08
7.254773262e-09
-2.200068994e-08
-8.836939637e-10
2.602458146e-09
-4.474134249e-10
1.552716487e-09
1.16071542e-09
-1.953012927e-09
-8.818304496e-10
-1.223771268e-10
1.061263339e-09
8.01708277e-10
-1.87116699e-09
-3.069108483e-10
2.609445844e-09
1.032877888e-09
-3.332383357e-09
-5.752639137e-10
4.107801211e-09
1.497132651e-09
-4.905855292e-09
-8.50867991e-10
5.709703843e-09
1.922204489e-09
-6.483250201e-09
-1.179673254e-09
7.182851999e-09
2.266601044e-09
-7.743604026e-09
-1.567693071e-09
2.240432592e-09
-7.932784236e-09
8.046063667e-09
-6.611350557e-10
-1.856704635e-09
1.54372636e-09
2.241919989e-09
-1.14208061e-09
-2.915313798e-09
2.280180933e-09
3.802264051e-09
-2.151308772e-09
-4.995851636e-09
3.901422764e-09
6.731030756e-09
-4.647512378e-09
-9.16142326e-09
6.36543179e-09
1.178405438e-08
-8.420235371e-09
-1.349156694e-08
6.851851619e-09
1.367408818e-08
-9.893025417e-09
-1.290506133e-08
7.715518075e-09
1.251298508e-08
-1.052331995e-08
-1.353969973e-08
8.9954014e-09
1.684243602e-08
-1.852993563e-08
-2.147741164e-08
1.695256374e-09
2.343023251e-08
-1.00540941e-08
-3.244833295e-08
-1.770272377e-09
4.615188672e-08
-1.316019096e-08
-5.623004257e-08
2.121119861e-09
6.023757323e-08
-1.370581204e-08
-5.909559079e-08
1.054392123e-08
5.531117292e-08
-1.367615318e-08
-4.867571149e-08
2.126634561e-08
3.865413245e-08
-1.785886226e-08
-2.666203778e-08
2.590793682e-08
1.724470968e-08
-2.20500521e-08
-1.134400137e-08
1.860431734e-08
7.795217156e-09
-2.213069335e-08
-6.660730387e-09
2.339459296e-08
6.053607712e-09
-2.312931876e-08
-5.120670173e-09
7.564728644e-09
4.524005732e-09
-1.626796615e-08
-9.431716049e-10
8.654227455e-09
-4.414283768e-09
-9.652672154e-09
-9.177450182e-10
-3.025942232e-10
4.210864584e-09
2.520878213e-09
-5.211517833e-09
-1.697293527e-09
5.066790501e-09
2.598238693e-09
-5.549630642e-09
-1.928076461e-09
6.152639489e-09
2.728477764e-09
-6.613822269e-09
-2.303612859e-09
6.878878753e-09
2.794318154e-09
-6.878483246e-09
-2.421363951e-09
6.566353691e-09
2.412046302e-09
-5.939535752e-09
-2.028500241e-09
5.025292072e-09
1.525611597e-09
-3.925879625e-09
-8.897137948e-10
2.847985741e-09
4.604656122e-10
-2.083819265e-09
2.924819896e-10
1.844637884e-10
-2.245739697e-09
1.855438624e-09
4.427697032e-10
7.718714717e-10
-4.090420653e-10
-9.213741779e-10
8.266539456e-10
1.318872559e-09
-6.354121678e-10
-2.100896269e-09
1.777660653e-09
3.577276947e-09
-1.502588923e-09
-6.090510755e-09
4.173136171e-09
9.748310482e-09
-4.137079478e-09
-1.415102814e-08
7.139500428e-09
1.849965992e-08
-7.118097362e-09
-2.187082683e-08
8.217133849e-09
2.339875119e-08
-7.842604612e-09
-2.323134159e-08
1.089490565e-08
2.370029235e-08
-1.526443839e-08
-2.751537916e-08
3.007648578e-08
3.114310816e-08
-3.086156412e-08
-2.586119546e-08
1.305710063e-08
1.55834041e-08
-1.337233868e-08
-1.705000225e-08
1.836432607e-08
1.795607706e-08
-1.545716872e-08
-1.601336292e-08
1.606665147e-08
1.27902061e-08
-9.761223973e-09
-9.989611749e-09
1.22185057e-08
9.375282037e-09
-8.622104281e-09
-1.115059476e-08
1.721921657e-08
1.363235829e-08
-1.664323914e-08
-1.487400181e-08
2.208689881e-08
1.430351033e-08
-2.194390904e-08
-1.292169706e-08
2.315043978e-08
1.150122119e-08
-2.455923264e-08
-1.036650523e-08
2.300129691e-08
1.057033734e-08
-2.454466057e-08
-9.124922517e-09
1.882364913e-08
7.200378319e-09
-2.059989723e-08
-3.890228029e-09
7.097354314e-09
2.025136561e-09
-3.93912471e-09
-6.691810314e-09
-3.636467095e-09
1.051778861e-08
4.616993367e-09
-1.202703738e-08
-3.156218402e-09
1.284542108e-08
3.33922861e-09
-1.296903982e-08
-3.024909596e-09
1.15337269e-08
1.77658909e-09
-8.647022285e-09
-2.876601601e-09
5.846995764e-09
2.56540175e-09
-4.836396613e-09
-2.022774544e-09
3.777804285e-09
1.545259178e-09
-2.726161814e-09
-9.865551508e-10
1.749535247e-09
5.713078137e-10
-1.002077806e-09
-2.72299945e-10
5.441198439e-10
1.445874876e-10
-3.252838334e-10
-1.809577689e-10
2.099698479e-10
5.413750221e-11
-7.544760623e-11
1.190829683e-11
-1.775063218e-11
-3.104665236e-10
-7.640282408e-10
7.155683826e-10
3.52948136e-10
-3.238771484e-10
-8.530543613e-10
5.323538893e-10
1.187453418e-09
-5.312086239e-10
-1.998785087e-09
1.296563117e-09
3.892411473e-09
-1.378793151e-09
-7.447750028e-09
3.886852697e-09
1.219698111e-08
-3.634490714e-09
-1.674399011e-08
6.704631505e-09
2.015110098e-08
-5.824726878e-09
-2.276131292e-08
9.220704646e-09
2.683368183e-08
-1.023025521e-08
-3.550205843e-08
1.9165286e-08
4.300005048e-08
-1.328163965e-08
-3.43994408e-08
1.39394873e-08
1.602041653e-08
-2.17785273e-09
-6.859589615e-09
1.051775791e-08
6.339312071e-09
-4.956832387e-09
-1.889398717e-09
1.152842307e-08
9.065861199e-09
-1.015045612e-08
-7.780279481e-09
4.808714779e-09
4.680794834e-09
-3.134080182e-09
-4.130525286e-09
7.289035247e-09
5.96523062e-09
-7.467791097e-09
-9.421484412e-09
1.70725491e-08
1.32462058e-08
-1.803289415e-08
-1.558256772e-08
2.328173001e-08
1.571007492e-08
-2.454638968e-08
-1.47557532e-08
2.666650151e-08
1.428464773e-08
-2.758371389e-08
-1.422086619e-08
2.657242192e-08
1.339912124e-08
-2.691416777e-08
-1.120995381e-08
2.016756846e-08
9.032288238e-09
-1.813432496e-08
-9.476978566e-09
-3.479504672e-09
1.036385023e-08
9.051635907e-09
-1.701553905e-08
-1.113906177e-09
1.878298969e-08
-9.101464042e-09
-8.032894716e-09
-2.55257002e-09
6.189747872e-09
1.452972092e-09
-4.711357978e-09
-7.207054531e-10
5.452029427e-09
8.07894151e-10
-7.086252336e-09
-2.629357909e-09
5.043178147e-09
2.461705198e-09
-3.234146087e-09
-9.044621684e-10
2.038911254e-09
2.954470258e-10
-1.192277413e-09
-3.550814543e-10
1.045336362e-09
6.780312035e-10
-1.26447706e-09
-1.037721966e-10
1.919623817e-09
1.350083834e-09
-3.137798133e-09
-3.143232462e-11
5.179660153e-09
3.403979213e-09
-8.530828129e-09
-3.386091093e-12
9.043211283e-09
-2.306652933e-08
1.402617788e-08
2.106117359e-10
-3.039285892e-11
-8.671167219e-10
9.991118128e-10
3.173674765e-10
-3.296875743e-10
-1.336275367e-09
6.461847591e-10
2.084302923e-09
-8.800604827e-10
-3.651618505e-09
1.839425972e-09
6.406734284e-09
-2.264903659e-09
-1.012606083e-08
3.495071546e-09
1.399262683e-08
-3.062530001e-09
-1.713844984e-08
4.296677381e-09
1.897802286e-08
-2.527216503e-09
-1.928228621e-08
4.018992837e-09
1.839765444e-08
-1.361097258e-09
-1.731312895e-08
2.929824101e-09
1.64504444e-08
2.425139444e-09
-1.453106497e-08
-7.17424167e-11
1.051142848e-08
1.136982696e-08
-7.807052503e-09
6.095296277e-09
1.11300866e-08
-6.447737239e-09
-9.33209276e-09
6.34216208e-09
6.632832505e-09
-7.865218585e-09
-4.716395547e-09
3.694300594e-09
3.800502345e-09
-4.898853864e-09
-4.713314053e-09
8.426212613e-09
8.133859412e-09
-9.169293622e-09
-1.256981983e-08
1.873638786e-08
1.694234367e-08
-1.802357821e-08
-1.981321637e-08
2.496065997e-08
2.030928236e-08
-2.369905992e-08
-1.921707347e-08
2.728667433e-08
1.802288972e-08
-2.57655507e-08
-1.710688213e-08
2.54185099e-08
1.575038237e-08
-2.285205072e-08
-1.461190312e-08
1.422278775e-08
1.562871669e-08
-7.531620731e-09
-1.925801696e-08
-1.288998629e-08
1.627812915e-08
1.829922157e-08
-7.017538066e-09
5.185811611e-09
3.480274515e-09
-5.009165801e-11
-5.450654853e-09
-6.480804858e-10
1.920500007e-09
4.071003175e-10
-5.08427814e-10
-9.658636046e-11
1.117285759e-10
7.275070749e-11
-1.960048408e-11
-2.20343078e-09
-2.907643946e-11
1.473907705e-09
6.435505172e-10
-4.731176684e-09
-1.034972256e-09
8.815065597e-09
-3.321692164e-09
-1.953749175e-09
5.534378404e-09
3.761660226e-09
-7.39380916e-09
-3.692023592e-09
9.554148714e-09
6.266602284e-09
-1.207785767e-08
-7.132823841e-09
1.480957676e-08
9.823845825e-09
-1.744268592e-08
-1.229542005e-08
1.321607694e-08
-2.035390711e-08
1.9488385e-08
1.564341781e-10
1.099940583e-09
-1.864007747e-10
-1.522961198e-09
3.868843594e-10
2.263367741e-09
-6.094385434e-10
-3.43379218e-09
1.090688503e-09
5.090062673e-09
-1.127383901e-09
-7.022299673e-09
2.084780116e-09
8.865799802e-09
-1.356074134e-09
-1.035472007e-08
2.358968713e-09
1.134372098e-08
-1.275523608e-09
-1.170229048e-08
1.661446434e-09
1.130830834e-08
-9.349418113e-10
-1.01262668e-08
8.156533052e-10
8.268333804e-09
-5.855532885e-10
-6.062674829e-09
6.214911241e-11
4.372386506e-09
-4.993159067e-10
-5.868681923e-09
-1.619091879e-08
1.335822027e-08
-1.38907382e-09
-1.627177779e-08
8.538507015e-09
6.624243316e-09
-8.542100995e-09
-6.054517086e-09
7.148952617e-09
4.487222024e-09
-5.333478895e-09
-3.680153708e-09
5.07606407e-09
4.140964439e-09
-4.032740063e-09
-5.93409486e-09
8.730426004e-09
9.048526262e-09
-6.872556176e-09
-1.178038738e-08
1.518719754e-08
1.444561427e-08
-1.062602052e-08
-1.737152055e-08
2.017202883e-08
1.964164292e-08
-1.467079877e-08
-2.061149847e-08
2.255560216e-08
2.076931058e-08
-1.783082809e-08
-2.064290997e-08
1.742597665e-08
2.044800879e-08
-1.177963476e-08
-2.204071791e-08
-6.412226739e-09
2.795620508e-08
1.441057249e-08
-3.189909298e-08
-1.656276322e-08
2.174189361e-08
2.30143572e-08
-4.703267846e-09
-6.668154697e-11
4.533812441e-10
1.280201493e-09
2.522044912e-10
-2.945170148e-09
-3.990950982e-09
7.38454594e-09
6.788304236e-09
-4.32938625e-09
-2.524983357e-09
4.124284795e-09
-1.399658178e-09
-3.750267716e-09
4.370294145e-09
5.816322363e-09
-6.078716601e-09
-8.279391523e-09
7.854756282e-09
7.124534016e-09
-8.680930657e-09
-5.480049462e-09
9.992209179e-09
6.63973924e-09
-1.114890195e-08
-7.865960174e-09
1.196086265e-08
8.136599158e-09
-1.218692901e-08
-9.74650174e-09
1.153678348e-08
7.998709727e-09
-9.751777735e-09
-8.398086149e-09
6.764318014e-09
4.670678284e-09
-3.016077525e-09
-6.046865493e-11
3.36899196e-11
3.165164615e-11
9.368103327e-09
6.86401958e-10
-8.962624281e-10
-9.409757736e-09
9.383001354e-10
9.077146468e-09
-5.185990972e-10
-8.74606607e-09
7.406882475e-10
8.584207385e-09
9.686977384e-11
-8.587815906e-09
2.879899604e-10
8.553520316e-09
7.235629545e-10
-8.234677733e-09
-1.265683909e-10
7.493648116e-09
1.068014559e-09
-6.331993364e-09
-2.695779325e-10
4.861169819e-09
7.153104428e-10
-3.35713642e-09
5.204945853e-11
2.247000079e-09
-5.717033587e-10
-2.218568642e-09
1.454131674e-09
3.927743871e-09
-4.516964838e-09
-6.97383825e-09
7.04806456e-09
9.236579362e-09
-9.051088519e-09
-9.338896581e-09
8.080314588e-09
7.36266205e-09
-7.999113902e-09
-4.659916885e-09
3.881316482e-09
2.572705203e-09
-2.942474012e-09
-1.763242643e-09
2.863999337e-09
2.164438172e-09
-3.286846923e-09
-3.477684999e-09
4.538414494e-09
5.290509253e-09
-3.682173814e-09
-6.030220739e-09
5.988660564e-09
6.143619914e-09
-2.893225155e-09
-7.050100752e-09
8.862216268e-09
9.96085954e-09
-4.751113347e-09
-1.46656202e-08
1.25875049e-08
1.957477161e-08
-8.377123211e-09
-2.393807631e-08
6.333868397e-09
2.829412095e-08
-4.855572797e-09
-3.186088141e-08
-1.776742561e-08
3.355849403e-08
1.59285278e-08
-3.343414952e-08
-3.072098277e-08
2.714410444e-08
3.371160663e-08
-1.631977002e-08
-8.369151976e-09
9.735795224e-09
1.790470433e-08
-7.763346107e-09
-8.501262918e-09
7.274597095e-09
8.642374704e-09
-7.054082307e-09
-5.810090886e-09
7.73060645e-09
7.704111303e-09
-8.752802824e-09
-6.686903873e-09
9.306383931e-09
6.922789766e-09
-9.831836232e-09
-6.711570268e-09
1.036213723e-08
6.801833152e-09
-1.072343754e-08
-7.08593888e-09
1.088582984e-08
7.060393535e-09
-1.065472811e-08
-7.379050364e-09
9.917923187e-09
6.265128476e-09
-8.615774627e-09
-5.79781578e-09
6.735728839e-09
3.692858647e-09
-4.401795265e-09
-2.400601495e-09
2.142352889e-09
9.040709768e-10
-5.621481739e-10
-1.829269478e-11
1.096059018e-11
9.609318936e-12
2.916930544e-09
1.402510799e-09
-2.261670804e-08
2.159645516e-08
-1.899559811e-10
1.752235693e-09
-2.000261583e-08
-5.657028742e-10
1.807345067e-08
1.599484946e-09
-1.596930582e-08
-1.037742014e-09
1.382151485e-08
1.543512723e-09
-1.1739512e-08
-1.34527888e-09
9.812800229e-09
1.278440801e-09
-8.138310873e-09
-1.145351473e-09
6.933555607e-09
1.838473564e-10
-6.861319776e-09
2.704780456e-10
9.032169179e-09
-3.770899676e-09
-1.28759056e-08
4.668788954e-09
1.600643388e-08
-8.614797355e-09
-1.771026922e-08
8.472769869e-09
1.855341882e-08
-1.183065386e-08
-1.872315217e-08
1.142968152e-08
1.764373533e-08
-1.321281771e-08
-1.449593933e-08
8.112675114e-09
9.580077885e-09
-7.776834043e-09
-4.786869085e-09
2.360339587e-09
1.988386252e-09
-2.360053973e-09
-1.620622315e-09
1.017565441e-08
3.309324697e-09
-2.883899241e-08
-1.333396957e-09
6.323835266e-09
6.603518679e-10
-1.046880714e-08
-1.647156989e-09
1.277732648e-09
1.90503319e-09
-5.296009447e-10
-2.153232965e-09
2.348011905e-09
3.638369575e-09
-7.411053653e-10
-7.741129989e-09
5.63109123e-09
1.620748997e-08
-1.360729219e-09
-3.065715366e-08
8.02554002e-09
4.701784391e-08
-7.946081233e-09
-5.309911384e-08
-8.203243311e-09
5.121733533e-08
4.243055334e-09
-4.251710746e-08
-3.093825285e-08
3.282250573e-08
2.718176899e-08
-2.760505496e-08
-2.146885855e-08
2.153608575e-08
2.016798536e-08
-1.526182192e-08
-9.387723999e-09
1.370632194e-08
1.013999052e-08
-1.276060641e-08
-8.645887234e-09
1.207842644e-08
8.68177186e-09
-1.147686485e-08
-7.03944881e-09
1.099309909e-08
6.946926228e-09
-1.081799606e-08
-6.910393654e-09
1.049445112e-08
6.51976993e-09
-9.866245063e-09
-6.639603618e-09
8.913929197e-09
5.553476088e-09
-7.695385155e-09
-5.147331372e-09
6.358457105e-09
3.745243984e-09
-5.153937982e-09
-2.512720752e-09
4.485471596e-09
-8.883565442e-13
-2.664597751e-09
-1.021068666e-09
2.93331382e-09
1.832421937e-09
-3.768503639e-09
-3.426616875e-09
4.506496983e-09
-6.615131066e-09
5.378246456e-09
-4.059970598e-09
6.117248952e-09
-2.503374976e-08
2.326692253e-08
-3.473448202e-09
5.239973271e-09
-2.080199356e-08
-2.450301678e-09
1.791899847e-08
3.268333921e-09
-1.495534094e-08
-1.311165971e-09
1.219515267e-08
1.301886546e-09
-9.939001843e-09
-7.951076339e-11
8.576259455e-09
-6.401559539e-11
-8.542168109e-09
1.615135644e-09
1.013913286e-08
-1.399280703e-09
-1.352328743e-08
5.645448014e-09
1.845883096e-08
-5.136634848e-09
-2.378863259e-08
1.013954506e-08
2.816367086e-08
-9.866272627e-09
-3.099231373e-08
1.309939999e-08
3.211135889e-08
-1.258385295e-08
-3.104377136e-08
1.291180885e-08
2.703189564e-08
-1.139495388e-08
-2.003008588e-08
6.704517343e-09
1.174171932e-08
-5.557254797e-09
-5.229019184e-09
3.652524586e-09
3.26723154e-09
-7.353455319e-09
-6.905004158e-09
4.560024251e-08
1.003849017e-08
-4.53998944e-08
-1.356246785e-10
6.883893035e-09
-1.226641082e-09
-1.691223718e-09
4.952973589e-09
1.350120933e-10
3.969451332e-10
-6.500447842e-11
-9.088867291e-10
8.30633358e-11
2.017167545e-09
-9.441339243e-10
-6.592015402e-09
2.298032099e-09
2.061898077e-08
-1.696133678e-08
-3.925631533e-08
1.806317079e-09
4.000378651e-08
-1.114806958e-09
-3.271198967e-08
-6.420073525e-09
3.435230902e-08
1.437439303e-08
-3.691456341e-08
-2.793656723e-08
3.495597618e-08
2.987520719e-08
-2.837372935e-08
-1.866649705e-08
2.230681443e-08
1.61559287e-08
-1.695210158e-08
-1.069196449e-08
1.491695025e-08
1.105241541e-08
-1.336208104e-08
-8.359088013e-09
1.183004518e-08
8.169850677e-09
-1.015833821e-08
-6.517944323e-09
8.591555339e-09
6.112094113e-09
-7.519870868e-09
-5.644583075e-09
6.555487559e-09
3.964062201e-09
-5.567314429e-09
-4.043968172e-09
4.369804759e-09
8.756838643e-10
-2.903497936e-09
-1.935162709e-09
1.442819193e-09
1.867252867e-10
-3.786817186e-10
4.375997519e-12
-1.851114547e-10
9.546641302e-11
4.769999738e-11
-1.711376372e-09
4.460058801e-09
3.629204102e-09
-4.437408172e-09
-4.31092367e-09
3.826533962e-09
-5.222160543e-09
4.805930339e-09
-6.922388148e-09
4.902675838e-09
-1.538142003e-08
1.395234159e-08
-6.169340839e-09
4.678896472e-09
-1.166017664e-08
-3.588967477e-09
8.971249374e-09
2.342169406e-09
-6.485088559e-09
-1.36533941e-09
4.773511137e-09
7.98769097e-10
-4.172740567e-09
-5.342231126e-10
4.710953063e-09
6.348148805e-10
-6.524731386e-09
3.671271354e-10
1.016508026e-08
1.226962323e-10
-1.594245738e-08
4.067893047e-09
2.281849421e-08
-2.781010786e-09
-2.885381934e-08
8.733175694e-09
3.295655154e-08
-7.03200917e-09
-3.505423037e-08
1.157206054e-08
3.532952679e-08
-1.046232744e-08
-3.377848357e-08
1.052298392e-08
3.019568437e-08
-1.017671511e-08
-2.45653198e-08
5.559289858e-09
1.782087815e-08
-6.330101048e-09
-1.319862284e-08
1.495989276e-08
1.626405938e-08
-1.933854249e-08
-1.832236617e-08
2.784277986e-08
9.316274297e-09
-7.953267907e-09
1.293521453e-09
6.195680498e-10
-4.849907765e-09
-5.85284775e-09
-1.574831309e-09
-6.105738147e-10
4.371691802e-09
1.487059232e-10
-9.043965666e-09
6.170857604e-09
1.813336614e-08
-8.729769902e-09
-2.588632741e-08
2.241415966e-08
2.850687953e-08
-1.41776128e-08
-3.108162303e-08
5.344602058e-09
2.592528026e-08
-9.040962086e-09
-1.316392668e-08
-1.897835373e-08
1.106138123e-08
4.231280006e-09
-1.78089237e-08
-2.811761757e-08
2.400696883e-08
1.288641941e-08
-1.409890312e-08
-8.70071338e-09
2.397109307e-09
1.658167338e-08
-1.461899854e-09
-1.09332412e-08
8.343177509e-09
1.24701392e-08
-9.521868511e-09
-8.626604568e-09
8.31003918e-09
8.759555543e-09
-7.621187832e-09
-4.21326562e-09
1.033531823e-08
-1.065022343e-08
-2.154823511e-08
4.073853286e-09
2.805285577e-08
-3.628957977e-08
-2.702218587e-08
1.400215857e-08
2.169931691e-08
-3.044893464e-08
-1.511592318e-08
5.560908878e-09
8.39132816e-09
-1.700642413e-08
-1.948943248e-09
-6.943525306e-11
2.980351937e-12
3.906850458e-11
1.682205289e-11
-6.88182605e-09
-5.387591447e-11
8.686405946e-09
-2.868432725e-09
-3.528140425e-09
3.547073471e-09
-3.851582522e-09
3.50348808e-09
-1.562546515e-09
3.509385029e-10
-2.130516775e-09
1.858129769e-09
-1.826119785e-09
4.299990091e-10
-1.48955725e-09
-8.540175842e-10
1.1547229e-09
3.022178126e-10
-1.009217789e-09
-4.347978614e-10
1.149785998e-09
3.629558629e-10
-1.702881696e-09
-6.832846366e-10
3.011015991e-09
7.673516927e-10
-5.63964087e-09
-7.567015465e-10
9.853219104e-09
1.295600958e-09
-1.501825394e-08
9.897940387e-10
1.992550697e-08
1.409094656e-10
-2.347379071e-08
4.873931486e-09
2.517669421e-08
-3.33046659e-09
-2.52773421e-08
8.325710834e-09
2.431205964e-08
-6.212979485e-09
-2.284557524e-08
8.176451858e-09
2.134162238e-08
-6.340003514e-09
-2.005600816e-08
3.531124548e-09
1.883268627e-08
-3.228165753e-09
-1.69501057e-08
2.136692841e-09
1.382592249e-08
5.952107579e-09
-1.051174754e-08
6.965395794e-10
8.245947169e-09
2.689103343e-08
-9.781288297e-09
5.315928984e-09
1.712676521e-08
2.887348129e-09
-2.555662408e-08
6.979997409e-09
3.108091452e-08
-1.470596524e-09
-3.537367311e-08
1.391951256e-08
3.942900746e-08
-5.006652832e-09
-4.709275253e-08
6.752595376e-09
5.389577464e-08
6.248553465e-10
-4.850676702e-08
4.919802674e-09
3.819338909e-08
1.47310065e-08
-2.731093174e-08
4.428234987e-09
2.336791386e-08
2.675766723e-09
-2.235743515e-08
-3.320577931e-10
2.229285132e-08
-1.920537853e-09
-1.77449081e-08
-2.543277624e-08
5.602360485e-09
1.191024591e-08
-9.385742882e-10
-9.363472538e-09
1.187324862e-08
-1.070333961e-08
-2.273200529e-08
-4.354362611e-09
3.792595975e-08
-2.381280746e-08
-5.073917827e-08
4.402323548e-08
4.689864466e-08
-4.603219722e-08
-4.841602019e-08
4.939984215e-08
5.476081073e-08
-5.218157974e-08
-5.4395146e-08
4.014405394e-08
4.842951501e-08
-4.459912689e-08
-3.991299895e-08
2.659457147e-08
3.044078308e-08
-3.370992357e-08
-2.106585625e-08
-2.18767692e-12
1.369379116e-08
-2.643890061e-08
-1.796330757e-09
-9.286055793e-09
5.244730838e-09
5.969827236e-09
-2.270685527e-09
-3.715075089e-09
3.740171264e-09
-2.957240943e-09
2.645018205e-09
-4.982517113e-10
-2.571904131e-09
1.102980668e-09
-2.338157035e-10
4.161687425e-10
-6.63028969e-10
-2.037490279e-10
5.291392423e-10
2.442380959e-10
-5.925122539e-10
-3.713454891e-10
8.322306652e-10
4.04338721e-10
-1.337467044e-09
-8.088382576e-10
2.357299689e-09
8.310501885e-10
-4.257642287e-09
-1.423859417e-09
7.147780196e-09
1.460756326e-09
-1.042624656e-08
-7.984581496e-10
1.302064211e-08
1.352827876e-09
-1.418305628e-08
1.783829359e-09
1.384300944e-08
-4.713666084e-10
-1.219554691e-08
3.938259788e-09
9.913391052e-09
-2.017837696e-09
-7.651649273e-09
3.978951276e-09
6.0053353e-09
-2.142097129e-09
-5.589071659e-09
2.925265486e-09
6.994619488e-09
-2.215913849e-09
-1.034750728e-08
-3.586051921e-09
1.516215896e-08
4.278657003e-10
-2.131432948e-08
-3.648702917e-08
2.943761272e-08
1.456040605e-08
-2.941278151e-08
-1.166804566e-08
3.44899302e-08
1.220394353e-08
-3.612237968e-08
-9.907059305e-09
3.377133111e-08
4.812992126e-09
-2.601969755e-08
5.787017273e-09
1.553839835e-08
-8.240485084e-09
-1.521546551e-08
4.945260184e-09
1.86808037e-08
-8.940506631e-09
-2.693541284e-08
6.309232605e-10
3.817262421e-08
-1.039140628e-08
-4.961117914e-08
3.300578399e-10
5.805714922e-08
-1.139413974e-08
-6.16825195e-08
6.386031564e-09
6.399112853e-08
-1.640339289e-08
-6.838729374e-08
1.223441932e-08
7.126944835e-08
-1.905758528e-08
-7.478519674e-08
1.947879152e-08
8.171256359e-08
-1.563316042e-08
-8.811617372e-08
2.605712289e-08
9.304353463e-08
-2.358732572e-08
-9.486351371e-08
4.149482597e-08
8.916690626e-08
-3.65531823e-08
-8.252978846e-08
4.845532102e-08
7.78947509e-08
-3.877775065e-08
-7.00777851e-08
4.12005149e-08
5.991126407e-08
-3.314902557e-08
-4.937405404e-08
3.132897637e-08
4.021253071e-08
-2.804150757e-08
-3.322401996e-08
2.419378744e-08
2.768606689e-08
-2.644178594e-08
-2.187312453e-08
5.205842377e-09
1.539748655e-08
-1.046053518e-08
-6.894417233e-09
-3.378248191e-09
4.229770582e-09
-3.626977329e-09
1.671914893e-09
2.81896137e-09
-8.072347537e-10
1.402335341e-09
-1.943052405e-09
-4.118126522e-10
1.615208278e-09
8.237548531e-10
-1.767008319e-09
-5.828026422e-10
2.278804056e-09
9.484717197e-10
-3.040423165e-09
-1.033417321e-09
3.982411476e-09
1.336834511e-09
-5.060019681e-09
-1.63019761e-09
6.18153114e-09
1.825353875e-09
-7.128647247e-09
-1.746801928e-09
7.57944468e-09
1.977212255e-09
-7.283846716e-09
-5.5347323e-10
6.266896136e-09
1.178064022e-09
-4.867409603e-09
7.268489529e-10
3.506311472e-09
-1.043887286e-11
-2.225402277e-09
9.259318537e-10
1.329934688e-09
-2.722724231e-10
-9.787051333e-10
9.451939886e-10
1.690721621e-09
-1.292033122e-10
-5.898323771e-09
2.7986211e-11
1.738578042e-08
-1.771792162e-10
-3.399549161e-08
-5.542745419e-09
4.564287912e-08
3.84232799e-09
-4.679166352e-08
-9.705224127e-09
3.883164351e-08
8.642430319e-09
-2.517920403e-08
-4.664351715e-09
1.697116165e-08
-4.257749702e-11
-1.127631075e-09
8.019261524e-09
3.199304785e-10
-4.283357973e-09
-6.045212075e-09
1.010451443e-08
8.635398396e-09
-9.891591269e-09
-1.037865082e-08