/*--------------------------------*- C++ -*----------------------------------*\
| =========                 |                                                 |
| \\      /  F ield         | OpenFOAM: The Open Source CFD Toolbox           |
|  \\    /   O peration     | Version:  2.1.x                                 |
|   \\  /    A nd           | Web:      www.OpenFOAM.org                      |
|    \\/     M anipulation  |                                                 |
\*---------------------------------------------------------------------------*/
FoamFile
{
    version     2.0;
    format      ascii;
    class       volVectorField;
    location    "0.7";
    object      Uf;
}
// * * * * * * * * * * * * * * * * * * * * * * * * * * * * * * * * * * * * * //

dimensions      [0 1 -1 0 0 0 0];

internalField   nonuniform List<vector> 
2828
(
(0.02867713727 0 -0.3396992976)
(0.09591980153 0 -0.3546265592)
(0.1089337271 0 -0.3781285847)
(0.1141947994 0 -0.3512551986)
(0.1362203614 0 -0.3164014783)
(-0.9173809626 0 -0.507642676)
(-0.5799964984 0 -0.3069751076)
(-0.232573957 0 -0.2041158792)
(-0.2368084975 0 -0.2379568638)
(-0.03513103833 0 -0.294566404)
(0.09498601455 0 -0.328708008)
(0.1070605515 0 -0.3507782942)
(0.1964701824 0 -0.3860684578)
(0.6246569593 0 -0.5085252291)
(1.086466365 0 -0.8128457543)
(1.294715776 0 -0.9572497049)
(1.377697569 0 -0.9643257714)
(-1.073334337 0 -0.8667536331)
(-1.062698729 0 -0.7377240531)
(-0.9076564879 0 -0.5491484594)
(-0.4476261038 0 -0.3647128082)
(-0.0866352136 0 -0.3170419424)
(0.1157417165 0 -0.3911741512)
(0.1719692357 0 -0.3837635963)
(0.2113403629 0 -0.3741047732)
(0.3414012291 0 -0.3964085408)
(0.6495783473 0 -0.5237036422)
(0.9801415434 0 -0.7319729617)
(1.192811289 0 -0.8788953482)
(1.304106274 0 -0.9346345241)
(1.35295956 0 -0.9281947488)
(-0.6111259581 0 0.05490262445)
(-0.5651020358 0 -0.06633408883)
(-0.9516726777 0 -0.9685664252)
(-0.9282226946 0 -0.9118085729)
(-0.9001100015 0 -0.7813686869)
(-0.7077975175 0 -0.5458965077)
(-0.1585590048 0 -0.4121058718)
(0.1212127316 0 -0.444924571)
(0.2493827472 0 -0.4702503834)
(0.3063684585 0 -0.4509962836)
(0.4040307985 0 -0.442759808)
(0.6241711368 0 -0.5182878441)
(0.8897350857 0 -0.6797975616)
(1.049446856 0 -0.813696673)
(1.186357656 0 -0.8775903273)
(1.277870267 0 -0.8958722319)
(1.265125529 0 -0.8596079984)
(-0.4146314454 0 0.04729446069)
(-0.5777403645 0 -0.037945354)
(-1.01753193 0 0.342693746)
(-1.130964685 0 1.336491287)
(-0.6817061982 0 -0.9650496241)
(-0.7505450406 0 -0.9435363304)
(-0.7645808984 0 -0.9406096143)
(-0.6956289589 0 -0.7995377479)
(-0.4467140997 0 -0.5015800664)
(-0.002137613031 0 -0.3072779187)
(0.3097232991 0 -0.4900381984)
(0.4568196112 0 -0.5335391981)
(0.5423460198 0 -0.5138869256)
(0.7134910592 0 -0.5456876477)
(0.8541185706 0 -0.7494570932)
(0.7671977805 0 -0.9484182451)
(0.6263753621 0 -0.9055038427)
(0.9026487791 0 -0.7160498706)
(1.211206891 0 -0.8265317564)
(1.051901691 0 -0.6994976739)
(-0.3298108258 0 0.2696581069)
(-0.4001913745 0 0.2501477318)
(-0.5051843287 0 0.5571019625)
(-0.6130413448 0 1.72878321)
(-0.7185963448 0 2.2027629)
(-0.4442204545 0 -0.8037858485)
(-0.4843518845 0 -0.889518573)
(-0.5407633495 0 -0.8650120308)
(-0.6673709024 0 -0.8678703761)
(-0.4202160857 0 -0.5085241514)
(-0.1613850812 0 -0.4566653627)
(-0.02396996748 0 -0.523280988)
(0.1276013972 0 -0.5373166179)
(0.2133788229 0 -0.6830851364)
(0.2205861066 0 -0.7791131058)
(0.05336022093 0 -0.8524018679)
(-0.06035034417 0 -0.7608446762)
(-0.02262231651 0 -0.5924236625)
(0.3459091534 0 -0.6891551546)
(0.8998383291 0 -0.6081520591)
(0.6842436372 0 -0.5591054997)
(-0.1411251726 0 0.02966146626)
(-0.2096461127 0 0.3190525951)
(-0.2623407903 0 0.3828647066)
(-0.1642339256 0 0.09910690482)
(-0.08033099391 0 0.1576319757)
(-0.1081968389 0 0.2133042954)
(-0.04499549848 0 -0.4379722588)
(-0.2976113665 0 -0.5450879375)
(-0.3085552003 0 -0.6530458927)
(-0.2968559208 0 -0.6520437607)
(-0.2537585447 0 -0.5680681501)
(-0.2684334441 0 -0.5581174411)
(-0.2409550525 0 -0.378753197)
(-0.09253574623 0 -0.409469423)
(-0.0424448619 0 -0.4153105258)
(0.0700325458 0 -0.5258791419)
(0.1135844855 0 -0.589238992)
(0.04685832633 0 -0.6075276759)
(-0.05146482967 0 -0.4438757768)
(-0.1291448394 0 -0.1750409511)
(-0.1237205725 0 -0.1873601053)
(0.1047544799 0 -0.2150477127)
(0.3820899582 0 0.04927763989)
(0.4563488878 0 -0.0581549194)
(-0.3246216688 0 -0.1169304713)
(0.1215407301 0 -0.4806321544)
(0.2139266271 0 -0.6323101628)
(0.2300182445 0 -0.7187668774)
(0.2341349493 0 -0.7731615976)
(0.235695385 0 -0.798489404)
(0.2364327518 0 -0.8054173516)
(-0.2872538379 0 -0.3850407793)
(-0.2538162354 0 -0.3734781729)
(-0.2041280841 0 -0.3659475406)
(-0.2029945171 0 -0.3855731478)
(-0.2247548821 0 -0.428537994)
(-0.2239015723 0 -0.4258608513)
(-0.2452500795 0 -0.3772370232)
(-0.2674165117 0 -0.345366291)
(-0.1175615535 0 -0.32050683)
(-0.04048083831 0 -0.3922738832)
(-0.004739810693 0 -0.356008774)
(0.01316948221 0 -0.3025369794)
(-0.08277515411 0 -0.2578797193)
(-0.462126206 0 -0.2909841107)
(-0.6426125772 0 -0.2322079121)
(-0.6107591881 0 -0.1514651686)
(-0.434502498 0 -0.1703033685)
(-0.337846058 0 0.1004966706)
(0.1653153403 0 -0.4211005706)
(0.2893154414 0 -0.656268806)
(0.2993675841 0 -0.7118044103)
(0.2873320451 0 -0.7299813378)
(0.268490275 0 -0.7170298364)
(0.2210764643 0 -0.6648427297)
(0.1041609494 0 -0.549243421)
(0.01861540244 0 -0.4609416189)
(-0.279767901 0 -0.3968326231)
(-0.2179571476 0 -0.3515672822)
(-0.1568474939 0 -0.3525524318)
(-0.1458017231 0 -0.3890030188)
(-0.1342782196 0 -0.4181638099)
(-0.1047642685 0 -0.4196591133)
(-0.1752995412 0 -0.4143410394)
(-0.5493331994 0 -0.4966741989)
(-0.2777684041 0 -0.2896561365)
(-0.4024991912 0 -0.3548181816)
(-0.5677283312 0 -0.3660626224)
(-0.7496971984 0 -0.4671763849)
(-0.7008569166 0 -0.473560832)
(-0.6082515834 0 -0.3656759715)
(-0.5000781993 0 -0.2226773116)
(-0.4359448041 0 -0.2181577829)
(-0.3541292371 0 -0.171191575)
(-0.06973542617 0 -0.1029750642)
(0.3043402855 0 -0.6650787028)
(0.2624761226 0 -0.7046768365)
(0.255089749 0 -0.6968543743)
(0.3049286466 0 -0.6784293771)
(0.2474020354 0 -0.6106552368)
(0.1774359512 0 -0.5155955661)
(0.09747344467 0 -0.4076481899)
(0.09568063496 0 -0.4101762632)
(0.5156563985 0 0.3157044596)
(-0.20151285 0 -0.4902048296)
(-0.2244493437 0 -0.4808301433)
(-0.1797201972 0 -0.3980982557)
(-0.1113635883 0 -0.373481075)
(-0.1169938049 0 -0.4197689031)
(-0.1247754872 0 -0.4267572086)
(-0.1551948769 0 -0.4669518672)
(-0.3305489296 0 -0.7712885523)
(-0.822817029 0 -0.8727614599)
(-0.2657467968 0 0.07714454657)
(-0.3413061056 0 -0.4261330643)
(-0.5257213461 0 -0.5312737236)
(-0.5307279422 0 -0.4622693767)
(-0.5368090216 0 -0.4336520054)
(-0.5269739206 0 -0.3385213816)
(-0.4809344432 0 -0.2423705984)
(-0.3923294952 0 -0.1908377996)
(-0.2586840176 0 -0.1245554717)
(0.1349233611 0 -0.1178523468)
(-0.1430497471 0 -0.5493251262)
(0.1044809768 0 -0.5056542718)
(0.08913947045 0 -0.4382039106)
(0.2542669312 0 -0.5339119813)
(0.1457671175 0 -0.5189775546)
(0.2733606778 0 -0.5078747087)
(0.4323486313 0 -0.7031084666)
(0.542315412 0 -0.8580099956)
(0.6010980202 0 -0.9243963626)
(-0.1459174994 0 -0.5433462976)
(-0.1543072982 0 -0.5352525435)
(-0.133471005 0 -0.437095986)
(-0.1300436868 0 -0.4233894541)
(-0.1049654401 0 -0.4317543063)
(-0.07688042741 0 -0.4229460934)
(-0.04172753661 0 -0.3957056656)
(0.08536995831 0 -0.4337524115)
(0.5685028467 0 -0.5533684351)
(-0.284569999 0 -0.4971125289)
(-0.8377092903 0 -0.6839974169)
(-0.5342788915 0 -0.4853529987)
(-0.4504504776 0 -0.4457368115)
(-0.4697312908 0 -0.4321007053)
(-0.450985182 0 -0.358063132)
(-0.4042169728 0 -0.2573199137)
(-0.3056605432 0 -0.1896565706)
(-0.1480102337 0 -0.1989930399)
(0.1924155235 0 -0.1637884072)
(-0.4995911211 0 -0.3705615508)
(0.1806949238 0 -0.602803598)
(0.3937313847 0 -0.4267386898)
(0.2405067109 0 0.04695036039)
(0.3221822542 0 0.00238073922)
(0.4319626899 0 -0.7186125982)
(0.5055361983 0 -0.8004902981)
(0.5584562184 0 -0.8567823754)
(0.5959323717 0 -0.8811820041)
(-0.05477343779 0 -0.58733947)
(-0.07903731362 0 -0.5459110968)
(-0.102382825 0 -0.5059012071)
(-0.1031272967 0 -0.4814674158)
(-0.0898516013 0 -0.4497031037)
(-0.07036214865 0 -0.4187338506)
(-0.05634942988 0 -0.3906917098)
(-0.05852038994 0 -0.3852526114)
(0.3693717158 0 -0.5733710689)
(-1.01907486 0 -0.7878148445)
(-1.212168858 0 -0.6771175597)
(-0.6394310322 0 -0.4612918401)
(-0.4083909094 0 -0.4332099699)
(-0.4213082599 0 -0.4073384124)
(-0.3764779519 0 -0.3724896139)
(-0.314817434 0 -0.2902764377)
(-0.1728395012 0 -0.2288927947)
(0.1250897933 0 -0.3212681442)
(0.3733319218 0 -0.4294104027)
(1.124733892 0 0.01334146041)
(0.3748776773 0 0.4409103062)
(0.4471608656 0 -0.0249153666)
(0.3572984737 0 -0.3073535572)
(0.4113351506 0 -0.5440417949)
(0.4757582404 0 -0.7370530593)
(0.5236712176 0 -0.7741501509)
(0.5554832484 0 -0.7923731192)
(0.5661117085 0 -0.7844110859)
(0.3644206967 0 0.1017225179)
(-0.07445328032 0 -0.7312005794)
(-0.06738800059 0 -0.6577589468)
(-0.03610894025 0 -0.5877725065)
(0.01371782224 0 -0.5393507184)
(0.05332042969 0 -0.5046509914)
(0.06899517252 0 -0.4831546171)
(0.03623333466 0 -0.4810299309)
(-0.2870412274 0 -0.6987771583)
(-0.6461082608 0 -0.8718438982)
(-0.9409844558 0 -0.8947017015)
(-1.136890761 0 -0.7149921662)
(-0.6782442442 0 -0.4519914316)
(-0.3687052055 0 -0.4349737034)
(-0.4112552333 0 -0.4026189224)
(-0.3359669696 0 -0.3808164833)
(-0.2138216155 0 -0.3598581036)
(-0.04542697281 0 -0.3229959145)
(0.1888262215 0 -0.3390621903)
(0.4971811786 0 -0.400836388)
(0.8725003404 0 -0.3587195824)
(0.4789446049 0 -0.4031366439)
(0.4639625439 0 -0.4636860373)
(0.3974126642 0 -0.5624442469)
(0.4285251337 0 -0.6586267759)
(0.4660262462 0 -0.6889347532)
(0.485422371 0 -0.6930808853)
(0.4833347531 0 -0.6693220918)
(0.4243012327 0 -0.5864116857)
(0.2406044648 0 -0.01393154174)
(0.05882939597 0 -0.8190907188)
(0.06504053819 0 -0.8155575698)
(0.0669143695 0 -0.7863273208)
(0.09041247447 0 -0.7250696628)
(0.1174479361 0 -0.6508906434)
(0.106773633 0 -0.5863946765)
(-0.1115681248 0 -0.66187891)
(-0.2749885636 0 -0.7589550229)
(-0.3599398262 0 -0.7953711504)
(-0.5015200291 0 -0.8481071678)
(-0.6844669923 0 -0.8935036518)
(-0.9097158632 0 -0.7592550877)
(-2.095927305 0 -0.4222788409)
(-0.4365839598 0 -0.02256107641)
(-0.2939745141 0 -0.5044356906)
(-0.2221859252 0 -0.3967570602)
(-0.132894747 0 -0.4404691211)
(-0.1008047028 0 -0.4858636189)
(0.02559858736 0 -0.3906164333)
(0.368302256 0 -0.4242897033)
(0.5479884386 0 -0.5484998252)
(0.436889236 0 -0.5692812279)
(0.41393255 0 -0.5587742834)
(0.3766655696 0 -0.5959810943)
(0.3851714734 0 -0.5987625337)
(0.3789981783 0 -0.5710940199)
(0.3181841384 0 -0.4857357872)
(0.1737201376 0 -0.260657764)
(0.1214532476 0 -0.1783650437)
(0.2972037273 0 -0.3862885353)
(0.1646651344 0 -0.7385577348)
(0.1486274989 0 -0.7572373436)
(0.1186742217 0 -0.7595469701)
(0.05825038014 0 -0.7292825937)
(-0.04726537757 0 -0.6723789092)
(-0.1303250375 0 -0.6372450315)
(-0.1890530623 0 -0.6779636355)
(-0.2414988534 0 -0.730008448)
(-0.286009336 0 -0.7689436127)
(-0.3363482141 0 -0.8059546286)
(-0.4010776415 0 -0.8420209854)
(-1.002967092 0 -0.8292417713)
(-3.482171076 0 -0.5715778838)
(-0.3822097779 0 0.412758451)
(-0.01098797685 0 -0.6685175262)
(-0.05533202908 0 -0.4247662672)
(-0.1756963086 0 -0.4713619261)
(0.009223451774 0 -0.4631627047)
(0.06123406819 0 -0.4152132804)
(0.2733771496 0 -0.3313876855)
(0.4344848765 0 -0.5187715095)
(0.4067945964 0 -0.5507241969)
(0.363262823 0 -0.5259836129)
(0.3594647898 0 -0.533987955)
(0.359458995 0 -0.5026555018)
(0.3253297007 0 -0.4536383575)
(0.2538182445 0 -0.3660564524)
(0.2187975132 0 0.5904534153)
(0.08502701636 0 -0.2226936807)
(0.2521909178 0 -0.3753973819)
(0.2417840588 0 -0.6355557374)
(0.2336031072 0 -0.6476870725)
(0.1876823087 0 -0.6460744965)
(0.1115006708 0 -0.6034528345)
(0.07357823647 0 -0.5384992297)
(0.004625469357 0 -0.5625786795)
(-0.09098117119 0 -0.6465712011)
(-0.1657682638 0 -0.6882572952)
(-0.2170709105 0 -0.6903017629)
(-0.2132122559 0 -0.657918462)
(-0.1338961302 0 -0.5983448515)
(-0.6755876038 0 -1.185794865)
(-3.167987988 0 -0.6378888676)
(0.1019384288 0 -0.07393119964)
(0.1451322912 0 -0.2926122929)
(-0.1022911319 0 -0.3495212112)
(-0.1729557696 0 -0.287149595)
(-0.05551996667 0 -0.1899880989)
(0.2836273949 0 -0.3503338968)
(0.3172333084 0 -0.2606614015)
(0.05310360125 0 0.09788829892)
(0.4587735895 0 -0.4352843978)
(0.439394005 0 -0.3520723022)
(0.1465195309 0 -0.4181577517)
(-0.3968653675 0 -0.5221845834)
(-0.4982840527 0 -0.4866182669)
(-0.489069398 0 -0.4760288193)
(0.7763277015 0 0.3143413943)
(0.2718260165 0 -0.1504055223)
(0.2321221534 0 -0.3237112725)
(0.09393595788 0 -0.5319367126)
(0.1367062818 0 -0.5348649888)
(0.1267227493 0 -0.5285869779)
(0.141634082 0 -0.522595981)
(0.1148810128 0 -0.5178720738)
(0.06707310319 0 -0.5797222052)
(0.001238093888 0 -0.6262787348)
(-0.1051418177 0 -0.6335081587)
(-0.2119655574 0 -0.6201252207)
(-0.2381947236 0 -0.5939051194)
(-0.07989436302 0 -0.5633587533)
(0.3099613627 0 -0.5376606015)
(2.061076922 0 -0.451091361)
(0.03414762307 0 -0.5150526633)
(-0.1152235537 0 -0.4816188743)
(-0.1995152448 0 -0.4483827524)
(-0.04699078015 0 -0.4422197777)
(0.05603391661 0 -0.3016788445)
(-0.04889326275 0 -0.2899587321)
(-0.0117941122 0 -0.2292808613)
(0.2369180277 0 0.03938825666)
(0.0631368182 0 -0.2145302193)
(-0.1031649182 0 -0.3553305263)
(-0.334359809 0 -0.3345664529)
(-0.5055611998 0 -0.6255395637)
(-0.5850949219 0 -0.6877316415)
(-0.6238996007 0 -0.6689667424)
(-0.5844235935 0 -0.4802216729)
(0.383187237 0 -0.1765363969)
(0.2700932097 0 -0.2396010713)
(0.1253490781 0 -0.4712527301)
(0.1524873881 0 -0.4689255096)
(0.1924101634 0 -0.4557271723)
(0.2254133386 0 -0.4573264424)
(0.1711052774 0 -0.4723239066)
(0.1021826674 0 -0.523561143)
(0.04815238188 0 -0.5494969554)
(-0.04178871955 0 -0.5387059687)
(-0.1875004527 0 -0.5099745603)
(-0.3301925961 0 -0.4757229944)
(-0.2181067456 0 -0.4840994756)
(0.06165374038 0 -0.4911956446)
(0.4535501122 0 -0.5077080466)
(0.2939694463 0 -0.560105045)
(0.1648960261 0 -0.4700260693)
(-0.4255512106 0 -0.4643160022)
(-0.4885576305 0 -0.6877421047)
(-0.2794150749 0 -0.7545578084)
(-0.111409275 0 -0.6917539118)
(-0.1249458108 0 -0.6243434359)
(-0.1561077404 0 -0.5917661812)
(-0.07829455949 0 -0.5723640634)
(-0.1289214981 0 -0.6244597996)
(-0.4112517613 0 -0.7937237618)
(-0.6113800511 0 -0.9533728697)
(-0.725300998 0 -0.9953700422)
(-0.8138896498 0 -0.941420442)
(-0.8085841511 0 -0.8005546348)
(-0.4755497172 0 -0.5603551403)
(0.3050431455 0 -0.1096744852)
(0.2355343914 0 -0.4985399582)
(0.2456887758 0 -0.5014672104)
(0.2087887654 0 -0.5190981857)
(0.1712412573 0 -0.5285019799)
(0.1474645947 0 -0.5243415802)
(0.1224772391 0 -0.5100165415)
(0.07358996393 0 -0.4752775739)
(-0.03555177916 0 -0.4241044065)
(-0.2232618594 0 -0.3596345573)
(-0.2180118149 0 -0.4048593384)
(0.03402751307 0 -0.6026482863)
(0.1681654129 0 -0.5900250088)
(0.2343795746 0 -0.4169241491)
(0.2975270259 0 -0.3781372712)
(-0.6859191821 0 -0.4449390206)
(-0.6994771665 0 -0.6306430942)
(-0.7521223814 0 -0.6840012425)
(-0.7719402659 0 -0.7303827148)
(-0.6374919587 0 -0.7002318296)
(-0.3732908862 0 -0.663996115)
(-0.3107014025 0 -0.7658677097)
(-0.4870670493 0 -0.9120494806)
(-0.6719992708 0 -1.064269467)
(-0.8023606548 0 -1.193960276)
(-0.8675358841 0 -1.233382613)
(-0.9169040432 0 -1.176874944)
(-0.9848590533 0 -1.154378124)
(-0.9943334053 0 -1.220350727)
(0.2226152206 0 0.02990489265)
(0.2642722591 0 -0.6451035933)
(0.270924202 0 -0.6464178366)
(0.2253849793 0 -0.6088240176)
(0.1777073648 0 -0.5869348529)
(0.1485573096 0 -0.5934590419)
(0.1339646738 0 -0.5946281903)
(0.1109999417 0 -0.5723174526)
(0.08207124547 0 -0.5775521637)
(0.1218286107 0 -0.7495834467)
(0.234241583 0 -0.9322653985)
(0.03964877705 0 -0.5727098627)
(-0.3342169559 0 -0.2576333316)
(-0.3407212042 0 -0.2039800142)
(-0.5697292977 0 -0.4588568571)
(-0.5972439682 0 -0.5146618623)
(-0.6860690607 0 -0.6347322656)
(-0.7853278288 0 -0.8055496629)
(-0.9531398651 0 -1.002034741)
(-1.169836209 0 -0.839166608)
(-1.099933936 0 -0.4191823132)
(-1.006476955 0 -0.7332625478)
(-0.99396089 0 -0.7383178815)
(-0.7729346643 0 -0.9373777085)
(-0.7596944298 0 -1.203320405)
(-0.8016208082 0 -1.317536435)
(-0.8831093353 0 -1.368419841)
(-0.9948724969 0 -1.421148034)
(-1.072920473 0 -1.474569547)
(0.09539201775 0 0.4946531747)
(0.2796570265 0 -0.7274938911)
(0.2590088025 0 -0.7117659176)
(0.2122384731 0 -0.6468132782)
(0.1737430149 0 -0.6060426907)
(0.1879065877 0 -0.6724292414)
(0.2078754243 0 -0.7287930017)
(0.2176842057 0 -0.7159385391)
(0.2431315042 0 -0.6892932941)
(0.2922961264 0 -0.6648590432)
(0.1466074412 0 -0.5290738392)
(-0.127085642 0 -0.4933304442)
(-0.2531184002 0 -0.5074679049)
(-0.3462787404 0 -0.5422656693)
(-0.4438223511 0 -0.5764592907)
(-0.5510328351 0 -0.5092298399)
(-0.6532890065 0 -0.6231974018)
(-0.7251881498 0 -0.8827627647)
(-0.7255323618 0 -1.111189044)
(-0.6895545801 0 -0.9734710993)
(-1.00917393 0 -0.6268290501)
(-1.272562839 0 -0.8619635117)
(-1.298817319 0 -0.6387727589)
(-1.032414104 0 -0.3629308638)
(-0.6551892875 0 -0.9197484646)
(-0.8184755515 0 -1.249118709)
(-0.9292320702 0 -1.418181126)
(-1.016704147 0 -1.515716002)
(-1.0706057 0 -1.559485103)
(0.2566596383 0 -0.6356511129)
(0.1983329347 0 -0.5579038541)
(0.1404268061 0 -0.4506660671)
(0.1800002199 0 -0.5162978719)
(0.2765791687 0 -0.6590685403)
(0.3291585819 0 -0.6780175617)
(0.3639735737 0 -0.6312126317)
(0.3760477363 0 -0.5634263844)
(0.1705200977 0 -0.5470325335)
(-0.3604680895 0 -1.002445965)
(-0.1705377939 0 -0.5926105808)
(-0.2443615217 0 -0.7119641624)
(-0.3592004544 0 -0.8451953708)
(-0.5113893625 0 -0.8420142192)
(-0.5631897109 0 -0.5705740261)
(-0.6350922135 0 -0.6372113683)
(-0.6771386597 0 -0.880084495)
(-0.6779620341 0 -1.035113681)
(-0.9514496789 0 -1.087492374)
(-1.130032357 0 -0.977671119)
(-1.146887983 0 -0.6742195251)
(-1.142609654 0 -0.2870286394)
(-0.6887494239 0 -0.4380826445)
(-0.7795589302 0 0.2503762238)
(-0.2794988892 0 0.5253394086)
(-0.2305646067 0 0.2628465947)
(-0.05377994384 0 0.3760399812)
(0.2074387032 0 -0.426686742)
(0.1522475995 0 -0.3360847673)
(0.1613998026 0 -0.318577887)
(0.2718887929 0 -0.490235058)
(0.3756322015 0 -0.5995512653)
(0.4217414455 0 -0.748990373)
(0.4990149199 0 -2.748780521)
(0.549448262 0 -4.380005196)
(0.566304047 0 -4.559712206)
(0.5773269821 0 -3.853537515)
(0.1530737991 0 -1.101966615)
(-0.1255500875 0 -0.9407462874)
(-0.150879923 0 -1.120428308)
(-0.1820336439 0 -1.348019832)
(-0.2597295046 0 -1.012716746)
(-0.5477235574 0 -0.5372740773)
(-0.7709096741 0 -0.8066653204)
(-0.9128579595 0 -1.052378358)
(-0.951676433 0 -1.130800009)
(-0.9583064295 0 -1.036753704)
(-1.041506688 0 -0.8647783264)
(-1.133429868 0 -0.6039033028)
(-0.9098471337 0 -0.6157894951)
(-0.348978539 0 1.150589154)
(0.4528468984 0 3.35486696)
(0.3151931086 0 2.7251624)
(0.179949647 0 -0.2854440947)
(0.2917003822 0 -0.4231951852)
(0.6139011757 0 -0.5883504399)
(0.8617516653 0 -0.6014073462)
(0.5542362844 0 -0.4673634367)
(0.4652614426 0 -0.5923382015)
(0.5138269959 0 -1.477823005)
(0.6635608122 0 -2.53718932)
(0.8830473235 0 -2.598023891)
(0.201273367 0 -0.154796633)
(0.1731852576 0 -0.1426994271)
(0.1634592694 0 -0.1804264191)
(0.2999764665 0 -0.3836439421)
(0.4727400929 0 -0.5165201227)
(-0.1298805457 0 -0.4371982734)
(-0.6163375767 0 -0.6454507939)
(-0.7677995255 0 -0.889696402)
(-0.8722565955 0 -1.033448816)
(-0.9922469486 0 -1.08668259)
(-1.139734539 0 -1.094495525)
(-1.216736011 0 -1.066530281)
(-1.078189188 0 -0.9599077537)
(-1.094336765 0 0.6003311135)
(0.5088166102 0 1.70297601)
(0.1436170952 0 0.7857386888)
(0.2500226703 0 -0.3457748416)
(0.4159758074 0 -0.4523435185)
(0.6950847337 0 -0.5068624612)
(0.7782232948 0 -0.4276043496)
(0.5270871829 0 -0.2767398288)
(0.3693372341 0 -0.2787068707)
(0.4133701538 0 -0.3876489895)
(0.3862928139 0 -0.4229903366)
(0.3610457412 0 -0.3556663384)
(0.236044137 0 -0.1265880941)
(0.2461573141 0 -0.1350852217)
(0.3294539358 0 -0.1514483779)
(0.3805172282 0 -0.2723951437)
(0.5426536306 0 -0.3499923491)
(0.818701119 0 -0.3971753266)
(0.7196646378 0 0.9080764695)
(-0.5949612837 0 -0.5620624454)
(-0.8263015491 0 -0.8301514136)
(-1.042962481 0 -1.034716755)
(-1.244861464 0 -1.189421827)
(-1.367974709 0 -1.279865486)
(-1.381134933 0 -1.275844791)
(0.4754823676 0 -0.1461103626)
(-0.1705974476 0 -0.0195623001)
(0.4810189339 0 -0.4118562714)
(0.5959431354 0 -0.3693424378)
(0.489271654 0 -0.2488316425)
(0.3333163088 0 -0.1747676964)
(0.2881662064 0 -0.1650733414)
(0.3170514309 0 -0.2138079062)
(0.3290276235 0 -0.2141165844)
(0.3046511924 0 -0.1682634193)
(0.2398381684 0 -0.124129954)
(0.2743803075 0 -0.1323436226)
(0.3895384499 0 -0.1329770377)
(0.4997568497 0 -0.2156866734)
(0.8948035806 0 0.06150255884)
(1.026030041 0 0.3521610784)
(0.9553492831 0 0.8546755223)
(0.4764471538 0 0.5566956896)
(0.332420598 0 0.7994182945)
(-0.8494136668 0 -0.78864704)
(-1.219643675 0 -1.160377138)
(-1.443859203 0 -1.365898348)
(-1.559157289 0 -1.452456423)
(-0.2155074184 0 0.3181520446)
(0.4387207328 0 -0.2454878256)
(0.3261967954 0 -0.1731502761)
(0.2851931419 0 -0.1593229667)
(0.2814842098 0 -0.1629653053)
(0.2916285593 0 -0.1792680631)
(0.2851833068 0 -0.1695132122)
(0.2571897621 0 -0.1375138032)
(0.2394957496 0 -0.1194105354)
(0.2841542567 0 -0.1229281547)
(0.3954797832 0 -0.1084370449)
(0.5774054009 0 -0.06986625732)
(1.25390642 0 0.2391522728)
(1.080845774 0 0.4733753162)
(0.9006087285 0 0.6114593914)
(0.5976363545 0 0.530508396)
(0.3945038077 0 0.5206336136)
(0.006229026989 0 0.1857895195)
(-0.9228500236 0 -0.8741171509)
(-1.408066005 0 -1.351311595)
(-1.613908648 0 -1.544323234)
(0.2713421065 0 -0.1560682772)
(0.2711024807 0 -0.1592686319)
(0.2635487694 0 -0.1595034421)
(0.2447711051 0 -0.1412282193)
(0.2288205921 0 -0.1209753209)
(0.2366051927 0 -0.1143739318)
(0.2841523401 0 -0.1134564962)
(0.390745302 0 -0.09356510638)
(0.6828769147 0 0.008953160903)
(1.302080134 0 0.2568124353)
(1.05032661 0 0.3881907764)
(0.8228825347 0 0.4514164047)
(0.5980002108 0 0.4352491119)
(0.4137104601 0 0.4129573425)
(0.2463008599 0 0.3566719162)
(0.1699726932 0 0.3308133353)
(0.1959864922 0 0.3795887914)
(0.2555122432 0 -0.1522704067)
(0.2330120023 0 -0.1419364604)
(0.218415591 0 -0.126787109)
(0.2144350284 0 -0.1137425952)
(0.2287039461 0 -0.1082174191)
(0.2741707515 0 -0.1034309549)
(0.3750070833 0 -0.08144545533)
(0.7182912966 0 -0.0154734672)
(1.319024637 0 0.2499941567)
(0.9924460187 0 0.3173826845)
(0.7690307579 0 0.3600359234)
(0.5710746014 0 0.3625859379)
(0.4149005468 0 0.3554221588)
(0.2881141555 0 0.331321588)
(0.2062194544 0 -0.1086697762)
(0.2146710836 0 -0.09995160737)
(0.2587400635 0 -0.092654892)
(0.3544705401 0 -0.07223662006)
(0.7369136822 0 -0.02198570326)
(1.287145759 0 0.2530559949)
(0.9356880457 0 0.2753479861)
(0.7256973053 0 0.3056063745)
(0.5626618968 0 0.3233077932)
(-0.2763501843 0 -0.1785189287)
(-0.2623206346 0 -0.1676819449)
(-0.2806114225 0 -0.1622290117)
(-0.3421527033 0 -0.1755335398)
(-0.2970017177 0 -0.2057765736)
(-0.09640735821 0 -0.3027867571)
(-0.05395662519 0 -0.2691315046)
(0.06477590318 0 -0.318082571)
(0.08309788343 0 -0.351782137)
(0.09639845499 0 -0.3381335869)
(0.1006652324 0 -0.3479032562)
(0.1015451976 0 -0.3676254943)
(0.1013088332 0 -0.3585413993)
(0.1003468228 0 -0.3555703213)
(0.1117748227 0 -0.3691121553)
(0.09938298167 0 -0.351450271)
(0.1018087289 0 -0.3797405534)
(0.1217617963 0 -0.3376040274)
(0.1457755711 0 -0.5062164008)
(-0.0317581715 0 -0.5567173359)
(-0.05821221297 0 -0.5709221148)
(-0.1476837137 0 -0.5878586456)
(-0.3261671356 0 -0.8380981964)
(-1.060142311 0 -0.7010192843)
(-1.019538708 0 -0.6225205795)
(-0.9465283224 0 -0.537642135)
(-0.7933647464 0 -0.4408783687)
(-0.7922331421 0 -0.416687125)
(-0.5481761447 0 -0.3383074149)
(-0.2352473901 0 -0.2422353068)
(-0.2710494136 0 -0.1937559718)
(1.306262464 0 -0.9484230157)
(1.35111461 0 -0.9509350505)
(1.3488227 0 -0.9624115168)
(1.370876984 0 -0.9495053305)
(1.397690216 0 -0.955051005)
(1.39853798 0 -0.9801159648)
(-0.498772673 0 0.4073285725)
(-0.4755309388 0 -0.08938256746)
(-1.028388535 0 -0.9386790567)
(-1.030779657 0 -0.8984733594)
(-1.004953176 0 -0.8325351278)
(-1.075470556 0 -0.8074736019)
(-0.5807207082 0 -0.07373101368)
(-0.3296838147 0 -0.05800568672)
(-0.3800732211 0 -0.02578708815)
(-0.7282408117 0 0.1973657194)
(-0.7708411237 0 -0.9769892984)
(-0.8245732875 0 -0.9747421184)
(-0.9061543193 0 -0.9805477026)
(-0.8436958974 0 -0.9588805177)
(-0.8484724677 0 -0.9476525727)
(-0.9602902057 0 -0.9510451418)
(-1.011859357 0 0.4868137363)
(-1.021038492 0 0.8551169126)
(-1.213968848 0 0.765413063)
(-1.007051103 0 1.674525369)
(-0.9186731172 0 1.830360394)
(-0.5126846363 0 -0.8533712251)
(-0.5506544565 0 -0.909698673)
(-0.6314559446 0 -0.9376363168)
(0.5991906826 0 0.5915381407)
(0.5238757587 0 0.5369754166)
(-0.3387474034 0 -0.6189945183)
(-0.3573583028 0 -0.6733802218)
(-0.415170552 0 -0.7389423751)
(0.11573975 0 -0.8014671906)
(0.08778550071 0 -0.8143032709)
(-0.2832316774 0 -0.4278649949)
(-0.2706034553 0 -0.4452648766)
(-0.2471293027 0 -0.4819397769)
(-0.2998317946 0 -0.6030854471)
(0.2183305259 0 -0.6763863976)
(0.1375932205 0 -0.554673608)
(0.2384850559 0 -0.797116674)
(-0.05773060073 0 -0.4204669286)
(-0.2844018681 0 -0.3796346867)
(-0.2662362825 0 -0.3664572009)
(-0.2759669621 0 -0.3814077505)
(0.05430795627 0 -0.4020745369)
(0.06102603682 0 -0.4030523966)
(0.03955094641 0 -0.4595157137)
(-0.2538568143 0 -0.4486168793)
(-0.2781984663 0 -0.413417072)
(-0.1289552697 0 0.1186047903)
(-0.1700711457 0 -0.5180536772)
(-0.1801466009 0 -0.5253390031)
(-0.2151503869 0 -0.4865560829)
(0.5941866788 0 -0.8989694324)
(0.6079531053 0 -0.9048292603)
(0.6258277862 0 -0.923677727)
(-0.09855609713 0 -0.5637625571)
(-0.1078139393 0 -0.565683336)
(-0.1150621456 0 -0.567280064)
(-0.1504755007 0 -0.5539801471)
(0.5942740538 0 -0.8377383537)
(0.6038166389 0 -0.82599294)
(0.6073730686 0 -0.8782328759)
(0.578090584 0 0.2018318735)
(0.01100687036 0 -0.7314433169)
(-0.04469109084 0 -0.5802175677)
(0.3666052959 0 0.02628322561)
(-0.04743415904 0 -0.8366489224)
(-0.05770286331 0 -0.819975361)
(-0.06313751165 0 -0.7501136087)
(0.27015931 0 -0.3950740853)
(0.3317846877 0 -0.4209170456)
(0.1047654859 0 -0.7977656681)
(0.09710990195 0 -0.805940847)
(0.06675289117 0 -0.819048071)
(0.2791441821 0 -0.3810152325)
(0.295418789 0 -0.3999852949)
(0.3318203941 0 -0.4069086132)
(0.2173946713 0 -0.6793782095)
(0.2118384705 0 -0.6895862372)
(0.157901722 0 -0.7483376684)
(0.2341441131 0 -0.3561191866)
(0.234969174 0 -0.367001018)
(0.2580281133 0 -0.3891540016)
(0.1979295647 0 -0.592931892)
(0.2124217912 0 -0.6019412874)
(0.2423961888 0 -0.6449220445)
(0.2442158301 0 -0.2809433448)
(0.2436741482 0 -0.2844301688)
(0.2332415797 0 -0.32954072)
(0.08165225347 0 -0.4920612819)
(0.0991520275 0 -0.4819229559)
(0.1271990538 0 -0.533507707)
(0.2916116204 0 -0.2039530945)
(0.2748325973 0 -0.2078027461)
(0.2586453114 0 -0.2390944796)
(0.1870032303 0 -0.4810754761)
(0.1311162593 0 -0.4646648969)
(0.2880516678 0 -0.05535944291)
(0.2946546938 0 -0.1752712238)
(0.2484439303 0 -0.557747803)
(0.2276353128 0 -0.4986622704)
(0.18146872 0 0.1901644662)
(0.2605657485 0 -0.6314390458)
(0.2708883055 0 -0.7133418646)
(0.2740057651 0 -0.7045316911)
(0.2773846456 0 -0.6528279035)
(-1.072372885 0 -1.535648778)
(-1.086590399 0 -1.531844723)
(-1.09164555 0 -1.471927514)
(0.284753105 0 -0.7163390659)
(0.27556185 0 -0.7072998384)
(0.2699545609 0 -0.7226173721)
(-1.078075663 0 -1.595585494)
(-1.107334069 0 -1.591951011)
(-1.087179036 0 -1.565652775)
(0.2693753446 0 -0.5931251357)
(0.2814506002 0 -0.652426158)
(-0.01975479245 0 1.27059074)
(0.1788009012 0 -0.324374502)
(0.1646178724 0 -0.2787909789)
(0.1833759735 0 -0.3998094123)
(0.400974887 0 2.127981442)
(0.3731697777 0 2.085863403)
(0.2819167115 0 2.506969904)
(0.1717203479 0 -0.2593898137)
(0.2108166656 0 -0.3182391973)
(0.270008309 0 -0.3791913857)
(0.2218958595 0 -0.3507713457)
(0.03226266085 0 0.3981195479)
(-0.08683005885 0 0.1916322417)
(0.05480649099 0 0.6266585212)
(0.3611772261 0 -0.4011811031)
(0.3142554671 0 -0.3918748759)
(-0.1949579672 0 0.025907461)
(-0.1111724216 0 -0.06467377646)
(0.5274173794 0 -0.35337764)
(0.5519876725 0 -0.4010024303)
(-0.615507014 0 0.8845468794)
(-0.1987722557 0 0.02427050549)
(0.3292212904 0 -0.1772993797)
(0.3721840219 0 -0.1958821761)
(0.2961833416 0 -0.162505503)
(0.2798260376 0 -0.1569331926)
(0.297616843 0 -0.1628243081)
(0.4124191668 0 0.7310688084)
(0.5918095576 0 0.8590913427)
(-1.542502404 0 -1.47968228)
(0.9010224875 0 -0.5635373799)
(-1.6574691 0 -1.557649378)
(0.2751159244 0 -0.156130541)
(0.2695356424 0 -0.1564805287)
(0.2672708434 0 -0.1554793392)
(0.2711416277 0 -0.1571796217)
(0.1779806222 0 0.2742783625)
(0.1572275263 0 0.2581420747)
(0.1721512045 0 0.3446868052)
(0.2462501046 0 -0.1480179885)
(0.2267885726 0 -0.1383922586)
(0.2184898411 0 -0.1308520934)
(0.2257069027 0 -0.1347226408)
(0.2118659615 0 -0.1232616862)
(0.2059978947 0 -0.1150041275)
(0.214806963 0 -0.1191436959)
(0.5508513171 0 0.3343288596)
(0.4731772986 0 0.3353975659)
(0.4878846998 0 0.3593753768)
(0.4139569618 0 0.3369574367)
(0.3580254621 0 0.3356154398)
(0.3391886145 0 0.3436096956)
(0.2481037058 0 0.3128995701)
(0.2048152036 0 -0.1136878388)
(0.2087313329 0 -0.1053950348)
(0.2275177928 0 -0.09314054805)
(0.2269152606 0 -0.09473635952)
(0.2541931204 0 -0.08751982528)
(0.2898406441 0 -0.08079670084)
(0.2974909685 0 -0.08487028832)
(0.3452728203 0 -0.06984563454)
(0.4326881206 0 -0.05199293445)
(0.4429161717 0 -0.05184670784)
(0.7298570099 0 -0.02583609938)
(1.253876678 0 0.2267680091)
(1.272276649 0 0.2370888461)
(1.269359665 0 0.2605256769)
(1.073302736 0 0.2555464998)
(1.087865001 0 0.2601275306)
(0.9435627457 0 0.2687042826)
(0.8100786816 0 0.293171151)
(0.644405262 0 0.3158934076)
(-0.1747994858 0 -0.2539533455)
(-0.1166543088 0 -0.2645000115)
(-0.2170910638 0 -0.203443956)
(-0.06127864585 0 -0.3138044019)