/*--------------------------------*- C++ -*----------------------------------*\
| =========                 |                                                 |
| \\      /  F ield         | OpenFOAM: The Open Source CFD Toolbox           |
|  \\    /   O peration     | Version:  2.1.x                                 |
|   \\  /    A nd           | Web:      www.OpenFOAM.org                      |
|    \\/     M anipulation  |                                                 |
\*---------------------------------------------------------------------------*/
FoamFile
{
    version     2.0;
    format      ascii;
    class       scalarField;
    location    "1.5";
    object      age;
}
// * * * * * * * * * * * * * * * * * * * * * * * * * * * * * * * * * * * * * //


29
(
0.00640512531
0.005402094755
0.0052083176
0.005006294351
0.004805453466
0.004608843571
0.004403960107
0.004205387501
0.004005767112
0.003805616381
0.00360442797
0.003408790508
0.003204374525
0.003003789286
0.002804327546
0.002603553912
0.002402324878
0.002206538269
0.002009410056
0.001804444626
0.001605132571
0.001404761042
0.001210062501
0.001005818472
0.0008090162012
0.0006033137252
0.0004040955275
0.0002053479159
7.319331655e-06
)


// ************************************************************************* //
