/*--------------------------------*- C++ -*----------------------------------*\
| =========                 |                                                 |
| \\      /  F ield         | OpenFOAM: The Open Source CFD Toolbox           |
|  \\    /   O peration     | Version:  2.1.x                                 |
|   \\  /    A nd           | Web:      www.OpenFOAM.org                      |
|    \\/     M anipulation  |                                                 |
\*---------------------------------------------------------------------------*/
FoamFile
{
    version     2.0;
    format      ascii;
    class       scalarField;
    location    "1.5";
    object      d;
}
// * * * * * * * * * * * * * * * * * * * * * * * * * * * * * * * * * * * * * //


29
(
0.0005088364608
0.0005043900748
0.0005927737759
0.0005070599011
0.0005347905557
0.0006118305086
0.0006641919426
0.0005038653076
0.0005036455768
0.0005001935169
0.0005019522097
0.0005502950782
0.0005291767774
0.0005022179903
0.0005060061886
0.00052801717
0.001148164404
0.0005039729335
0.0005057153945
0.0005145361747
0.0005120614822
0.0005798007673
0.0005003826288
0.0006466381744
0.0006914718235
0.0005492381264
0.0005938741124
0.0009864718062
0.0005431608047
)


// ************************************************************************* //
