/*--------------------------------*- C++ -*----------------------------------*\
| =========                 |                                                 |
| \\      /  F ield         | OpenFOAM: The Open Source CFD Toolbox           |
|  \\    /   O peration     | Version:  2.1.x                                 |
|   \\  /    A nd           | Web:      www.OpenFOAM.org                      |
|    \\/     M anipulation  |                                                 |
\*---------------------------------------------------------------------------*/
FoamFile
{
    version     2.0;
    format      ascii;
    class       scalarField;
    location    "1.5";
    object      mass0;
}
// * * * * * * * * * * * * * * * * * * * * * * * * * * * * * * * * * * * * * //


29
(
6.898160452e-08
6.718900639e-08
1.090600191e-07
6.826159384e-08
8.008474733e-08
1.199201076e-07
1.534191e-07
6.697951427e-08
6.689192511e-08
6.552587028e-08
6.621947505e-08
8.725403264e-08
7.758914283e-08
6.632471918e-08
6.783691782e-08
7.708018663e-08
7.925211437e-07
6.702244402e-08
6.772003047e-08
7.132575255e-08
7.030155791e-08
1.020551628e-07
6.560021996e-08
1.415737192e-07
1.73109972e-07
8.675223119e-08
1.096684752e-07
5.026349167e-07
8.390423684e-08
)


// ************************************************************************* //
