/*--------------------------------*- C++ -*----------------------------------*\
| =========                 |                                                 |
| \\      /  F ield         | OpenFOAM: The Open Source CFD Toolbox           |
|  \\    /   O peration     | Version:  2.1.x                                 |
|   \\  /    A nd           | Web:      www.OpenFOAM.org                      |
|    \\/     M anipulation  |                                                 |
\*---------------------------------------------------------------------------*/
FoamFile
{
    version     2.0;
    format      ascii;
    class       scalarField;
    location    "1.5";
    object      nParticle;
}
// * * * * * * * * * * * * * * * * * * * * * * * * * * * * * * * * * * * * * //


29
(
1.990692039
2.072650952
1.234218467
2.055793672
1.742087633
1.138883334
0.9276719174
2.059457409
2.073061876
2.121949749
2.110650003
1.557665241
1.830316205
2.101037769
2.042572575
1.809485608
0.17642361
2.029125587
2.022381471
1.996629984
1.969474402
1.364345037
2.061960073
1.002333753
0.7895847871
1.647924879
1.261788841
0.274194526
1.615580182
)


// ************************************************************************* //
