/*--------------------------------*- C++ -*----------------------------------*\
| =========                 |                                                 |
| \\      /  F ield         | OpenFOAM: The Open Source CFD Toolbox           |
|  \\    /   O peration     | Version:  2.1.x                                 |
|   \\  /    A nd           | Web:      www.OpenFOAM.org                      |
|    \\/     M anipulation  |                                                 |
\*---------------------------------------------------------------------------*/
FoamFile
{
    version     2.0;
    format      ascii;
    class       Cloud<basicReactingParcel>;
    location    "1.5";
    object      positions;
}
// * * * * * * * * * * * * * * * * * * * * * * * * * * * * * * * * * * * * * //

29
(
(0.02281441784 0.000509766291 0.01646912101) 106060
(0.01677031478 0.000527638087 0.01136656773) 76632
(0.008120896989 0.00111153772 0.01370910972) 91448
(0.01261776661 0.001160648005 0.01409473926) 91493
(0.01591159643 0.004570118263 0.004571330331) 42292
(0.01379137423 0.004069991493 0.01926973601) 124714
(0.01151372724 0.002899189105 0.01370973285) 92066
(0.009066215887 0.005842105434 0.01898816724) 121085
(0.01152386279 0.004496580004 0.009401440246) 68154
(0.01375455923 0.004774963944 0.01371083842) 9711
(0.008615299044 0.006101003357 0.01413048224) 93222
(0.008812587794 0.006890854156 0.009811008779) 68919
(0.0128690853 0.006828815467 0.009762510081) 68953
(0.009102169468 0.007737275915 0.01333669645) 88717
(0.00929057033 0.008391225826 0.0110753522) 79115
(0.01261077556 0.00830143504 0.0113257757) 79145
(0.01338790388 0.008837503513 0.01268583222) 9141
(0.01215900972 0.009433776107 0.01308393765) 89331
(0.01140278337 0.01106244247 0.01574515497) 104416
(0.01356346127 0.01072261935 0.01205996107) 84638
(0.01009859495 0.01184677095 0.01275737241) 9257
(0.01075552296 0.01218989151 0.01210505861) 85007
(0.01190385952 0.0126353805 0.01370710336) 10039
(0.01230122952 0.01299969117 0.0122622599) 85217
(0.01324210461 0.01371080507 0.01281096656) 90314
(0.0128657339 0.01445073503 0.01335869402) 10100
(0.01242372354 0.01502377029 0.01178609191) 85605
(0.01277863339 0.01550914658 0.01225308437) 85809
(0.01249961492 0.0159803348 0.01249023873) 85805
)


// ************************************************************************* //
