/*--------------------------------*- C++ -*----------------------------------*\
| =========                 |                                                 |
| \\      /  F ield         | OpenFOAM: The Open Source CFD Toolbox           |
|  \\    /   O peration     | Version:  2.1.x                                 |
|   \\  /    A nd           | Web:      www.OpenFOAM.org                      |
|    \\/     M anipulation  |                                                 |
\*---------------------------------------------------------------------------*/
FoamFile
{
    version     2.0;
    format      ascii;
    class       vectorField;
    location    "1.5";
    object      U;
}
// * * * * * * * * * * * * * * * * * * * * * * * * * * * * * * * * * * * * * //


29
(
(1.581039734 -2.405636836 0.6084044806)
(0.7781675976 -2.84585016 -0.2065422131)
(-0.8307971283 -2.850069732 0.2293905579)
(0.02318607882 -2.946041394 0.3139748252)
(0.7008995744 -2.371705448 -1.628915174)
(0.2773790823 -2.585032008 1.454096821)
(-0.2220406422 -2.970951389 0.2723484527)
(-0.8065754265 -2.406585178 1.524031823)
(-0.2408507047 -2.857923799 -0.7645342198)
(0.3259807509 -2.935290794 0.3146204719)
(-1.066421521 -2.735090201 0.4475972217)
(-1.072328876 -2.665701675 -0.781980091)
(0.1141837945 -2.852977582 -0.8468963304)
(-1.121257418 -2.741345166 0.2761032655)
(-1.135180543 -2.704975604 -0.5039002638)
(0.04224683989 -2.948790711 -0.4478177726)
(0.3688172531 -2.986955547 0.07719093407)
(-0.1535427864 -2.967497498 0.2629383324)
(-0.5428575888 -2.452763788 1.60556899)
(0.5863468167 -2.91858479 -0.2426185471)
(-1.489229391 -2.583512224 0.1596092936)
(-1.237682787 -2.710133473 -0.280205556)
(-0.4908889413 -2.77653949 0.9939833143)
(-0.1972165125 -2.981816175 -0.2358814717)
(0.9159218108 -2.829375079 0.3838017625)
(0.6052583796 -2.566894198 1.421065306)
(-0.1885807544 -2.415581264 -1.765018051)
(1.35656847 -2.390836111 -1.202145796)
(-0.05260937869 -2.686722266 -1.333586726)
)


// ************************************************************************* //
