/*--------------------------------*- C++ -*----------------------------------*\
| =========                 |                                                 |
| \\      /  F ield         | OpenFOAM: The Open Source CFD Toolbox           |
|  \\    /   O peration     | Version:  2.1.x                                 |
|   \\  /    A nd           | Web:      www.OpenFOAM.org                      |
|    \\/     M anipulation  |                                                 |
\*---------------------------------------------------------------------------*/
FoamFile
{
    version     2.0;
    format      ascii;
    class       scalarField;
    location    "1";
    object      age;
}
// * * * * * * * * * * * * * * * * * * * * * * * * * * * * * * * * * * * * * //


30
(
0.006222053573
0.006007155615
0.005422555347
0.005223484374
0.005006926386
0.004816948916
0.004615143854
0.004426265595
0.004207754882
0.004012693796
0.003809944408
0.003626001504
0.003417167651
0.003219906488
0.003011460318
0.002807317503
0.002616627219
0.002419803473
0.002215597249
0.002020860431
0.001821208222
0.00160915259
0.001406708989
0.00120664371
0.001024137639
0.000822431574
0.0006053378396
0.0004138905979
0.0002167395851
1.40587839e-05
)


// ************************************************************************* //
