/*--------------------------------*- C++ -*----------------------------------*\
| =========                 |                                                 |
| \\      /  F ield         | OpenFOAM: The Open Source CFD Toolbox           |
|  \\    /   O peration     | Version:  2.1.x                                 |
|   \\  /    A nd           | Web:      www.OpenFOAM.org                      |
|    \\/     M anipulation  |                                                 |
\*---------------------------------------------------------------------------*/
FoamFile
{
    version     2.0;
    format      ascii;
    class       scalarField;
    location    "1";
    object      d;
}
// * * * * * * * * * * * * * * * * * * * * * * * * * * * * * * * * * * * * * //


30
(
0.0005055770113
0.0005529665895
0.0005155851791
0.0006077710968
0.0006069314007
0.0005036716048
0.0008101690667
0.0005412090397
0.0005000137376
0.0005000453971
0.0006421733289
0.0005164355978
0.0005558566764
0.001044339502
0.0005002287383
0.0005025350375
0.0009141575726
0.0005135942421
0.0007665487633
0.0005791120194
0.0008749231684
0.0006431608576
0.0006434956122
0.0005061573665
0.0005495522034
0.0005809216217
0.0005018328245
0.0006328266134
0.0005535973384
0.0007371147285
)


// ************************************************************************* //
