/*--------------------------------*- C++ -*----------------------------------*\
| =========                 |                                                 |
| \\      /  F ield         | OpenFOAM: The Open Source CFD Toolbox           |
|  \\    /   O peration     | Version:  2.1.x                                 |
|   \\  /    A nd           | Web:      www.OpenFOAM.org                      |
|    \\/     M anipulation  |                                                 |
\*---------------------------------------------------------------------------*/
FoamFile
{
    version     2.0;
    format      ascii;
    class       scalarField;
    location    "1";
    object      mass0;
}
// * * * * * * * * * * * * * * * * * * * * * * * * * * * * * * * * * * * * * //


30
(
6.766445327e-08
8.853098531e-08
7.176288609e-08
1.175489491e-07
1.170624053e-07
6.690229641e-08
2.784361333e-07
8.300299209e-08
6.545524186e-08
6.546767596e-08
1.386613471e-07
7.211857445e-08
8.992637798e-08
5.963809173e-07
6.553971336e-08
6.645040966e-08
4.000016712e-07
7.093475303e-08
2.358402814e-07
1.016918993e-07
3.506778807e-07
1.393020281e-07
1.395196545e-07
6.789773829e-08
8.690114179e-08
1.026481781e-07
6.617223701e-08
1.32694471e-07
8.883428323e-08
2.097026359e-07
)


// ************************************************************************* //
