/*--------------------------------*- C++ -*----------------------------------*\
| =========                 |                                                 |
| \\      /  F ield         | OpenFOAM: The Open Source CFD Toolbox           |
|  \\    /   O peration     | Version:  2.1.x                                 |
|   \\  /    A nd           | Web:      www.OpenFOAM.org                      |
|    \\/     M anipulation  |                                                 |
\*---------------------------------------------------------------------------*/
FoamFile
{
    version     2.0;
    format      ascii;
    class       scalarField;
    location    "1";
    object      nParticle;
}
// * * * * * * * * * * * * * * * * * * * * * * * * * * * * * * * * * * * * * //


30
(
2.005598862
1.588566024
1.772492202
1.176807211
1.240111134
2.05376348
0.5036938842
1.58109516
2.320583214
2.069968825
1.015572359
1.776499045
1.614353946
0.2298535472
2.211549233
2.134556373
0.3315410215
1.92932676
0.6018701025
1.332414826
0.380465497
1.095388151
1.009880382
2.046391225
1.456755312
1.370410396
2.175779762
1.05300614
1.521387545
0.6208044944
)


// ************************************************************************* //
