/*--------------------------------*- C++ -*----------------------------------*\
| =========                 |                                                 |
| \\      /  F ield         | OpenFOAM: The Open Source CFD Toolbox           |
|  \\    /   O peration     | Version:  2.1.x                                 |
|   \\  /    A nd           | Web:      www.OpenFOAM.org                      |
|    \\/     M anipulation  |                                                 |
\*---------------------------------------------------------------------------*/
FoamFile
{
    version     2.0;
    format      ascii;
    class       Cloud<basicReactingParcel>;
    location    "1";
    object      positions;
}
// * * * * * * * * * * * * * * * * * * * * * * * * * * * * * * * * * * * * * //

30
(
(0.007673152377 0.001250912557 0.002458691836) 34889
(0.02102817792 0.0007234643444 0.008720681647) 62294
(0.009473087494 0.001730974688 0.005571299367) 45316
(0.008444703663 0.0009683147098 0.01374595652) 9495
(0.01374204345 0.001157441392 0.01093393645) 7251
(0.01703106211 0.003148067267 0.01700078801) 12562
(0.01230151878 0.002414686599 0.009788242158) 67381
(0.006202356439 0.004463571271 0.01381967072) 92614
(0.01310060851 0.003696969731 0.014918375) 97374
(0.01218726342 0.004036086115 0.0129241472) 87569
(0.01358305029 0.005130859047 0.01579463515) 102674
(0.01343053878 0.005208426422 0.01259445906) 87970
(0.008222207123 0.006902253173 0.01069164191) 73812
(0.01359514873 0.007239637484 0.008544414783) 64233
(0.008163714402 0.008152706282 0.01320793243) 88904
(0.01088556205 0.00825379038 0.01528630685) 11343
(0.01626528104 0.009166977374 0.01340365281) 94067
(0.01238133045 0.009565708929 0.009192708822) 69727
(0.01240462863 0.009355558205 0.01231795302) 84237
(0.01257964341 0.009955461201 0.01282162267) 89335
(0.0104649281 0.0111618416 0.01097770078) 79905
(0.01233679836 0.01119194886 0.01286101209) 89719
(0.01289512631 0.01180721165 0.0127317729) 9260
(0.01222763031 0.01265645139 0.01384444812) 95015
(0.01272442541 0.01335090286 0.01096707956) 80319
(0.01167075778 0.01407905042 0.01119645256) 80508
(0.01232204921 0.01456777525 0.01140061535) 80707
(0.01229833032 0.01478217341 0.01236812328) 85609
(0.01238716013 0.01536041471 0.01252874347) 90699
(0.01250051752 0.01595785711 0.01249840218) 85811
)


// ************************************************************************* //
