/*--------------------------------*- C++ -*----------------------------------*\
| =========                 |                                                 |
| \\      /  F ield         | OpenFOAM: The Open Source CFD Toolbox           |
|  \\    /   O peration     | Version:  2.1.x                                 |
|   \\  /    A nd           | Web:      www.OpenFOAM.org                      |
|    \\/     M anipulation  |                                                 |
\*---------------------------------------------------------------------------*/
FoamFile
{
    version     2.0;
    format      ascii;
    class       vectorField;
    location    "1";
    object      U;
}
// * * * * * * * * * * * * * * * * * * * * * * * * * * * * * * * * * * * * * //


30
(
(-0.7618930981 -2.358464882 -1.584968904)
(1.398137907 -2.533864787 -0.6195940445)
(-0.5497317016 -2.617994085 -1.258353646)
(-0.7674118098 -2.870142408 0.2357809808)
(0.2453177703 -2.956114228 -0.3093154405)
(0.9274991998 -2.654351239 0.9213021525)
(-0.04271717711 -2.946495501 -0.5836251857)
(-1.406316995 -2.597883329 0.2946936166)
(0.1409725878 -2.908350458 0.5676319565)
(-0.07701664875 -2.965999084 0.1044533925)
(0.282056938 -2.849350397 0.8580162041)
(0.2540145859 -2.963646192 0.02578504059)
(-1.241059197 -2.656201983 -0.5246349003)
(0.3390068582 -2.727659017 -1.224464289)
(-1.42713574 -2.597472591 0.2329910345)
(-0.5703465557 -2.750388763 0.9843428892)
(1.434352064 -2.615890324 0.3442389178)
(-0.04870325185 -2.652632029 -1.357347679)
(-0.04289392324 -2.999329102 -0.08187687355)
(0.03922009573 -2.986598613 0.1583818768)
(-1.114752998 -2.659222408 -0.8338710895)
(-0.1010846754 -2.986019337 0.2236055384)
(0.2800718211 -2.978910369 0.1642843266)
(-0.2249239213 -2.767124845 1.110250369)
(0.2185492366 -2.584854404 -1.492783723)
(-1.006273739 -2.335175293 -1.581836422)
(-0.293429904 -2.364717293 -1.81281768)
(-0.486813455 -2.941853741 -0.3183391978)
(-0.5203139578 -2.95033138 0.1325385135)
(0.03680980963 -2.997617532 -0.1136486443)
)


// ************************************************************************* //
