/*--------------------------------*- C++ -*----------------------------------*\
| =========                 |                                                 |
| \\      /  F ield         | OpenFOAM: The Open Source CFD Toolbox           |
|  \\    /   O peration     | Version:  2.1.x                                 |
|   \\  /    A nd           | Web:      www.OpenFOAM.org                      |
|    \\/     M anipulation  |                                                 |
\*---------------------------------------------------------------------------*/
FoamFile
{
    version     2.0;
    format      ascii;
    class       surfaceScalarField;
    location    "2.3";
    object      phi;
}
// * * * * * * * * * * * * * * * * * * * * * * * * * * * * * * * * * * * * * //

dimensions      [1 1 -1 0 0 0 0];

internalField   nonuniform List<scalar> 
5536
(
2.044006469e-12
-6.081390001e-12
-1.980705414e-12
4.709903134e-12
-6.367266606e-11
-3.439026454e-11
6.599539556e-11
-3.557559224e-10
-7.275317993e-12
-1.889851313e-10
-6.602946928e-10
1.714311748e-10
-1.517549519e-10
-1.40390918e-10
-2.835406285e-10
-1.566189009e-11
6.758863082e-12
-3.637190006e-11
3.287716311e-13
4.115191301e-11
6.809151564e-12
-3.363975893e-11
-7.237687689e-12
3.319062374e-11
6.878995448e-12
-2.898157685e-11
-3.815683759e-12
4.455668902e-12
7.559160335e-13
-3.317736797e-12
-7.455112044e-13
4.759680397e-11
3.611776364e-12
-1.600054745e-11
-9.32941794e-12
9.447528631e-11
6.954437619e-12
-2.166270055e-11
1.063726919e-12
1.418283061e-10
-1.213550217e-11
-7.770972216e-12
1.017093117e-11
4.454588976e-11
-7.303805709e-12
-9.150223812e-12
5.415266198e-12
3.554325331e-12
-3.773775103e-12
-3.096987098e-12
3.106760282e-12
9.867016924e-11
-9.470534948e-11
6.488087193e-11
-4.163431207e-12
-2.624283026e-10
-9.56837383e-10
6.103248711e-10
-7.282501035e-10
-3.277065922e-10
8.975710233e-10
1.348226123e-10
-4.333166023e-10
-1.314766369e-10
1.497252642e-10
5.288787646e-11
-1.072018377e-10
-8.289069495e-12
2.982415641e-11
6.04916957e-12
-2.332827433e-11
-5.556261061e-12
2.658737873e-11
4.143396899e-12
-2.04570871e-11
-4.482347716e-12
2.485488043e-11
4.873440358e-12
-2.11355158e-11
-2.964384263e-12
2.666381047e-12
2.414857272e-13
-2.893802251e-12
3.04594926e-15
5.081039769e-12
3.023878745e-13
-2.800838625e-12
1.007520497e-13
1.614743936e-11
-1.391889582e-12
-7.846126199e-12
4.095113664e-12
3.612943991e-12
-7.833330167e-12
-2.017294274e-12
3.778439218e-12
2.886131224e-12
-2.987330596e-12
-2.365080812e-12
2.865217528e-12
2.684378835e-12
-2.755373753e-12
-2.258004126e-12
2.750362585e-12
8.418379997e-11
-2.464891343e-12
-6.976009462e-11
6.168058471e-11
7.736009086e-10
-2.131842843e-10
-5.788412149e-10
4.698165559e-10
2.01634881e-09
-8.206206084e-10
-1.4557707e-09
1.19711542e-09
-1.748911931e-09
1.366751077e-09
-1.25795946e-09
1.301682941e-11
-3.108804649e-11
-2.894732885e-11
3.595561369e-10
9.955790755e-11
-1.79385232e-10
-1.030701809e-10
2.612635589e-10
8.331129968e-11
-1.488738888e-10
-5.580608296e-11
7.546144839e-11
2.67115356e-11
-5.064700611e-11
-3.707116026e-12
1.766207821e-11
2.923915712e-12
-1.294931849e-11
-3.40604271e-12
1.52055528e-11
2.370370949e-12
-1.068537127e-11
-2.400848358e-12
1.761606298e-11
2.886391249e-12
-1.387944794e-11
-2.131696553e-12
4.109937974e-12
2.426772339e-13
-5.146037543e-12
-3.707677845e-14
1.494162576e-12
-5.003936976e-15
-1.088845535e-12
1.367983513e-13
3.968614591e-12
-6.476271811e-13
-1.649385368e-12
1.355467637e-12
1.776724666e-12
-2.062126784e-12
-1.03867302e-12
1.917838558e-12
1.800865495e-12
-1.948801983e-12
-1.242617932e-12
1.949015809e-12
1.824461694e-12
-1.947507379e-12
-1.44126386e-12
2.021272194e-12
5.588491514e-11
-1.291998201e-12
-4.32204397e-11
3.847732945e-11
4.0576263e-10
-1.193450118e-10
-2.657120445e-10
2.436761756e-10
9.623154982e-10
-3.990336945e-10
-5.810299971e-10
5.545806739e-10
1.136189707e-09
-6.541355599e-10
-6.536952901e-10
6.328266939e-10
7.078304261e-10
-3.105283794e-10
3.114836397e-10
-5.017474196e-10
-2.491621021e-10
-1.627494708e-10
1.376125934e-12
3.807616062e-12
-6.551605369e-14
-5.910135462e-12
9.103100705e-12
8.982673635e-12
-1.938212318e-12
-1.225625239e-11
7.710550566e-11
1.974694567e-11
-2.428878416e-11
-2.630165545e-11
7.695303169e-11
2.328761325e-11
-3.420259399e-11
-1.816143833e-11
3.165455042e-11
1.052621769e-11
-1.679751757e-11
-1.622517054e-12
9.350186961e-12
-3.734010967e-14
-7.181305513e-12
-1.607911048e-12
6.758503399e-12
1.130467439e-12
-3.332207953e-12
-9.632233248e-13
9.720589859e-12
1.052987462e-12
-5.394872794e-12
-1.069493231e-12
5.112336266e-12
4.485741257e-13
-4.136099015e-12
-8.246087812e-14
8.432817117e-13
-1.021747185e-13
-5.787576089e-13
1.017393783e-13
4.793625733e-13
-1.472844027e-13
-1.636652451e-13
2.876584186e-13
4.669728816e-13
-4.193781783e-13
-1.976794468e-13
5.300742844e-13
7.834451734e-13
-6.616059204e-13
-4.612689329e-13
8.411285798e-13
1.177287281e-12
-1.051143089e-12
-1.087378261e-12
1.289421947e-12
3.207605704e-11
-1.312834399e-12
-2.242542328e-11
2.064566427e-11
1.605912151e-10
-5.293323416e-11
-8.730784555e-11
9.357638126e-11
3.165986262e-10
-1.368237862e-10
-1.515211879e-10
1.743221259e-10
3.27377685e-10
-1.908067148e-10
-1.368853756e-10
1.669540404e-10
1.252365405e-10
-1.105025045e-10
-3.520883018e-11
6.194042132e-11
5.406965354e-11
-3.846829065e-11
-1.468077174e-11
2.847106929e-11
-5.6895926e-12
-1.676706732e-11
2.408231724e-15
1.569522159e-16
6.979652814e-15
-8.95068417e-15
1.676233323e-13
-8.959026148e-14
-1.009614044e-13
2.809657122e-14
2.721423979e-14
-2.564299177e-14
-1.321226747e-14
1.48120383e-14
7.622843363e-15
-9.652661997e-15
-1.673758944e-15
4.261943826e-15
1.076197261e-11
3.455343036e-12
-2.718866612e-13
-3.293743909e-12
5.889487262e-12
2.104938186e-12
-5.125941158e-13
2.071718291e-13
4.651778164e-12
-1.172967551e-12
-7.356260788e-14
-1.879815813e-13
7.65786905e-13
1.646154736e-13
-9.902788842e-15
-9.959780669e-14
1.735670141e-12
2.079571767e-13
-7.870461319e-14
3.529080662e-14
2.384125158e-12
-1.174092005e-13
-7.240941678e-13
-8.790982771e-15
4.262729e-13
-5.250770686e-14
-3.647485048e-13
6.330904188e-14
7.544253047e-14
-3.930160187e-14
-4.905293852e-14
5.717021453e-14
1.489622459e-13
-8.572724047e-14
-3.593421838e-13
1.548194187e-13
2.674611316e-13
-1.555201383e-13
-1.863727516e-13
2.716724823e-13
1.190125189e-12
-4.990287076e-13
-1.17702606e-12
9.169389922e-13
1.358965527e-11
-2.304463596e-12
-5.034087236e-12
8.106559426e-12
4.026630774e-11
-1.562010645e-11
-1.321942753e-11
2.233616367e-11
6.000526195e-11
-2.75409067e-11
-1.648253897e-11
3.051351752e-11
4.339166126e-11
-2.912179367e-11
-8.961807884e-12
2.218343116e-11
5.242847165e-12
-1.352652098e-11
-2.395579511e-12
5.891005327e-12
3.113630598e-12
-2.63407829e-12
-3.770552461e-12
3.206368313e-12
5.257708498e-12
-7.345096194e-12
-1.432048113e-11
1.703098529e-11
-3.938375924e-11
-3.896550204e-11
-1.658078285e-10
2.35683149e-10
6.391336725e-12
-2.197896212e-13
1.683979116e-14
4.622093966e-12
2.108705864e-14
-2.177992736e-13
-3.872721928e-15
5.841580329e-13
2.138603279e-15
-3.98631749e-15
-7.135953456e-16
3.440393146e-14
5.289502786e-16
2.546573692e-17
-1.169572102e-16
2.648208967e-15
-2.948403654e-18
-1.175158768e-13
1.128631815e-16
1.175689415e-13
-5.638458814e-19
8.676903032e-20
1.835836978e-19
2.152214736e-17
-6.215103961e-20
3.83346734e-20
2.058287191e-20
2.626525598e-18
-1.255306343e-20
1.976310952e-20
7.625019101e-21
3.685451939e-19
-3.753102318e-21
1.536219202e-21
3.442005826e-22
1.191854795e-20
3.444968291e-23
3.949407965e-14
4.511225489e-15
1.712127894e-13
8.76635507e-15
3.596418266e-13
-4.133882819e-13
-1.997244035e-15
1.370651664e-13
4.022520521e-14
-7.633923931e-14
-2.076723257e-17
4.387069178e-14
8.490179354e-13
-1.883807643e-13
-9.820970938e-13
8.110233301e-13
1.702565201e-13
-4.110291651e-13
-9.546954782e-14
1.954600642e-13
5.155394068e-13
-3.388986724e-13
-1.216784252e-12
8.350697433e-13
2.11373244e-13
-1.051831369e-12
-2.008235102e-13
1.878649849e-12
1.058927541e-12
-2.223694756e-12
-8.259050236e-13
2.221188953e-12
7.547710637e-13
-2.024058685e-12
-7.219239148e-13
1.775343705e-12
8.645795594e-13
-1.663018205e-12
-1.171390669e-12
2.014688223e-12
2.231322651e-12
-2.969020837e-12
-3.208340625e-12
4.921404117e-12
7.281410693e-12
-1.006177002e-11
-1.064954251e-11
2.028125013e-11
2.344321295e-11
-3.622593472e-11
-2.583277705e-11
5.852059556e-11
5.44489114e-11
-4.995647392e-11
1.249160868e-10
-8.74875197e-11
-4.042124237e-06
5.2243842e-06
-0.003474101885
-0.003254336804
0.003103840625
0.003624011107
-0.001001491692
-0.002951427881
0.001828765874
0.002123862075
-0.0002888600186
-0.001429568274
0.0007957798327
0.0009225326833
-8.322020949e-05
-0.0005782557275
0.0003066284303
0.0003548047136
-2.395080521e-05
-0.0002141738874
0.0001105101949
0.0001275994317
-6.889712265e-06
-7.518929997e-05
3.819867604e-05
4.387521892e-05
-1.975222795e-06
-2.536024049e-05
1.28236386e-05
1.451012822e-05
-5.515394007e-07
-8.200469479e-06
4.192368845e-06
4.55908336e-06
-1.348381153e-07
-2.476924084e-06
1.309922241e-06
1.301655197e-06
-2.024135782e-08
-6.514899903e-07
3.682736605e-07
3.033944586e-07
-5.808072718e-10
-1.270469497e-07
8.207852707e-08
4.552668819e-08
-8.50469838e-14
-1.28797343e-08
1.038235258e-08
2.488844064e-09
-2.388569536e-17
-2.358296632e-10
2.284217351e-10
5.857500355e-12
-1.294719957e-12
-2.469324553e-13
3.553524062e-12
1.783758827e-13
-1.124626795e-13
-9.315446216e-12
7.482667345e-11
2.003741995e-11
5.352404777e-12
-2.658847515e-11
-5.608148245e-13
1.452135586e-11
1.009460388e-12
-5.274812589e-12
-4.279059501e-13
2.118628395e-12
4.675133013e-13
-1.349958429e-12
-3.038067097e-13
1.255486151e-12
4.506115833e-13
-1.322522856e-12
-2.810505287e-13
1.434431197e-12
1.198104362e-12
-1.621047619e-12
-1.196562191e-12
2.549350228e-12
4.179271271e-12
-5.306095995e-12
-4.376020733e-12
1.016788031e-11
1.144223249e-11
-1.725044999e-11
-1.05767879e-11
2.677374365e-11
2.391376124e-11
-3.903931079e-11
-2.046133899e-11
5.442882381e-11
4.30674687e-11
-7.355084865e-11
-3.461357297e-11
9.709814587e-11
6.180071668e-11
-5.386305849e-11
1.777197103e-10
-1.254541811e-10
3.970710247e-05
-0.0001891238623
-2.450255857e-05
0.000173906095
-0.002127773459
-0.0008286743403
0.001319809799
0.001636424242
-0.002107830449
-0.002161451294
0.001959214527
0.002309779443
-0.001286728945
-0.002165900969
0.001593670486
0.001858735547
-0.0006380484022
-0.00149596719
0.0009871047304
0.001146775787
-0.0002812721936
-0.0008460757631
0.0005220805408
0.0006051973511
-0.0001149577597
-0.000422010103
0.0002489019036
0.0002880330668
-4.45698096e-05
-0.000193018029
0.000110287807
0.0001272856304
-1.65973486e-05
-8.274134753e-05
4.625598503e-05
5.307671894e-05
-5.950727369e-06
-3.361289768e-05
1.855378922e-05
2.100743348e-05
-2.025194937e-06
-1.294159969e-05
7.124887737e-06
7.840968237e-06
-6.290670424e-07
-4.65545377e-06
2.589864447e-06
2.69429494e-06
-1.63724589e-07
-1.508475059e-06
8.636866306e-07
8.083741288e-07
-2.969828801e-08
-4.085239775e-07
2.47524568e-07
1.906437183e-07
-2.310965376e-09
-7.967871072e-08
5.346854156e-08
2.849984423e-08
-1.012283239e-10
-8.162289283e-09
6.568496657e-09
1.688441781e-09
-3.102815687e-12
-2.105266035e-10
1.979914708e-10
1.436797255e-11
1.751522596e-13
-1.593548164e-12
1.090906265e-12
5.803362276e-13
2.956840928e-13
-1.256312283e-12
-2.83361394e-13
1.387637732e-12
2.14662128e-13
-1.349988556e-12
-1.447402167e-13
1.284877954e-12
1.019456087e-12
-1.244489806e-12
-6.627412887e-13
2.081432792e-12
3.91868086e-12
-4.640917933e-12
-3.05085714e-12
8.524346978e-12
9.058098368e-12
-1.361451795e-11
-7.093108796e-12
1.989522388e-11
1.651497802e-11
-2.735069975e-11
-1.222084567e-11
3.600409375e-11
2.634577713e-11
-4.5910395e-11
-1.833862974e-11
5.722157611e-11
3.902665087e-11
-6.998747148e-11
-2.642487217e-11
8.551700577e-11
-4.061387138e-11
-1.304134043e-10
-4.365549251e-05
0.0001878874644
-0.0001373325839
3.528705646e-05
-5.43407587e-05
0.000156384337
-0.0007639121632
-0.00031489178
0.0004142433373
0.0006644950313
-0.001602922661
-0.001103631531
0.001205188185
0.001501199236
-0.001673910561
-0.001766859032
0.00157174119
0.001868817226
-0.00126474067
-0.001821629302
0.001420832708
0.001665349384
-0.0007894981649
-0.001445829079
0.001032211609
0.001202980837
-0.000434012568
-0.0009658914868
0.000647449222
0.0007523711282
-0.0002178311439
-0.0005709326063
0.0003652079877
0.000423508915
-0.0001021065288
-0.0003079320281
0.0001900773822
0.0002199369327
-4.53461465e-05
-0.0001545834752
9.285566809e-05
0.0001070621536
-1.922603097e-05
-7.313119723e-05
4.305698293e-05
4.929477372e-05
-7.783726403e-06
-3.279210758e-05
1.90544222e-05
2.151897063e-05
-2.977972833e-06
-1.391502753e-05
8.041699025e-06
8.850243586e-06
-1.047975092e-06
-5.520976101e-06
3.203867313e-06
3.364634257e-06
-3.213132171e-07
-1.992227761e-06
1.175793117e-06
1.137557813e-06
-7.742759712e-08
-6.201082596e-07
3.791198129e-07
3.183350876e-07
-1.183187254e-08
-1.510206351e-07
9.834541619e-08
6.447291743e-08
-6.697362129e-10
-2.384281058e-08
1.728020782e-08
7.218386925e-09
-5.480043593e-12
-1.640404043e-09
1.401736795e-09
2.386554637e-10
-2.73324007e-13
-2.066169626e-11
1.799318552e-11
2.349931027e-12
2.009786555e-13
-6.016523167e-13
5.85434832e-13
7.636205662e-13
1.662752898e-12
-1.599473407e-12
-8.651297928e-14
3.783218831e-12
4.695176873e-12
-6.984067052e-12
-2.268595317e-12
1.038302117e-11
7.680651506e-12
-1.353619598e-11
-3.418207685e-12
1.655990368e-11
1.07823951e-11
-1.966083967e-11
-4.454125893e-12
2.302424278e-11
1.504103439e-11
-2.698234866e-11
-6.350381517e-12
3.205401447e-11
1.707100003e-11
-1.057271011e-11
6.12631982e-11
-3.93421583e-11
8.351891185e-05
-0.0001296041223
0.0001337456438
-0.0001359416521
7.54687644e-05
-7.695763284e-05
0.0001373745106
-0.0001996978512
-0.0002078672962
5.41580951e-05
0.0003533947657
-0.0008505546314
-0.0005797219749
0.0005643405839
0.0008658627099
-0.001362970885
-0.001160792967
0.001111563303
0.00141206222
-0.001449798527
-0.001582655455
0.001375401729
0.001656881657
-0.001210628979
-0.001638107431
0.001305859694
0.001542714488
-0.0008581731301
-0.001393693145
0.001037098668
0.001214638613
-0.0005400073533
-0.001025900309
0.000722916069
0.0008429016267
-0.000310236391
-0.0006757782669
0.0004559192204
0.0005300386931
-0.0001658601925
-0.0004076187948
0.0002655175517
0.0003079283958
-8.362400074e-05
-0.0002288627235
0.0001449129852
0.0001675557216
-4.009382185e-05
-0.0001209602846
7.487543492e-05
8.616938443e-05
-1.835491355e-05
-6.060227039e-05
3.686826297e-05
4.208437139e-05
-8.008373818e-06
-2.885032167e-05
1.734447742e-05
1.951209126e-05
-3.296084861e-06
-1.300418351e-05
7.774165035e-06
8.525147635e-06
-1.25073041e-06
-5.483484551e-06
3.285429419e-06
3.448367714e-06
-4.189878912e-07
-2.110257144e-06
1.280208855e-06
1.248857743e-06
-1.146125478e-07
-7.089028524e-07
4.4163137e-07
3.818088225e-07
-2.211952043e-08
-1.923042901e-07
1.25577502e-07
8.881070394e-08
-2.210095638e-09
-3.65875282e-08
2.584498844e-08
1.293387535e-08
-4.774986256e-11
-3.70524972e-09
2.958704585e-09
7.862052484e-10
-2.760861934e-12
-1.012930452e-10
9.56789116e-11
5.777007023e-12
7.337261341e-14
-5.156574292e-13
3.578240248e-12
1.291809685e-12
3.510768069e-13
-2.96319237e-12
7.650265745e-14
2.881782237e-12
4.033161834e-13
-2.321362517e-12
3.657354082e-14
2.122941042e-12
9.142848172e-13
-2.416938393e-12
2.176331857e-14
3.212088893e-12
1.887515327e-12
-6.123361314e-13
5.237373778e-12
-3.506571037e-12
7.062793486e-05
-0.0001350503179
-7.421213158e-05
0.0001385652057
7.632370687e-05
-0.0001391766224
-7.647476718e-05
0.0001392563798
4.445430001e-05
-0.0001392322291
-7.6329003e-05
0.0001710561254
-0.0003326198435
-0.0002971758103
0.0001448827227
0.0004848794946
-0.0008562483346
-0.0007113524726
0.0006157702521
0.0009517568586
-0.001230739669
-0.001177307696
0.001046105351
0.001361823438
-0.001318275845
-0.001487012944
0.001260595003
0.001544549723
-0.001164142687
-0.001535668704
0.001230473956
0.001469194483
-0.0008931451038
-0.001358418552
0.001033170583
0.001218271294
-0.0006150014052
-0.001063153608
0.0007728475903
0.0009052153344
-0.0003884694281
-0.0007537213713
0.0005272121648
0.0006149154135
-0.0002286124555
-0.0004924005164
0.0003333632852
0.0003876097697
-0.0001268019857
-0.000300330903
0.0001978139602
0.000229295671
-6.681332473e-05
-0.000172665093
0.0001111305015
0.0001283354919
-3.361431097e-05
-9.420340452e-05
5.949578519e-05
6.831591723e-05
-1.616867483e-05
-4.895207025e-05
3.046422835e-05
3.465390298e-05
-7.408950053e-06
-2.422465193e-05
1.49246955e-05
1.670787498e-05
-3.198895126e-06
-1.135467614e-05
6.963837986e-06
7.589341158e-06
-1.2729635e-06
-4.976258352e-06
3.058893601e-06
3.190159956e-06
-4.49002425e-07
-1.990807575e-06
1.237177326e-06
1.202530655e-06
-1.312875506e-07
-6.979506625e-07
4.435956688e-07
3.855628103e-07
-2.825908863e-08
-2.002099922e-07
1.322968613e-07
9.611819797e-08
-3.548573633e-09
-4.17152204e-08
2.937724148e-08
1.586153502e-08
-1.494589614e-10
-5.055299871e-09
3.932414631e-09
1.262234014e-09
-3.164493053e-12
-2.170963074e-10
1.966748832e-10
1.970092147e-11
-5.448401994e-13
-8.332882457e-13
6.641788114e-12
8.561587563e-13
-4.099734802e-13
-3.127991043e-12
1.763796262e-12
4.338301004e-12
1.245700903e-13
-4.087196754e-12
9.932064349e-13
3.537678741e-12
4.485271138e-13
7.431284865e-13
-3.604390133e-12
-0.0001417828254
7.907026151e-05
-7.897820584e-05
0.0001416178998
7.700040125e-05
-0.000141308684
-7.665755358e-05
0.0001408940303
7.613294053e-05
-0.0001403957539
-7.55577689e-05
0.0001397497096
6.574883639e-06
-0.000138833646
-7.335164642e-05
0.000205538468
-0.0003963560191
-0.0003775851123
0.0001944554284
0.0005794467963
-0.0008430760296
-0.0007934711208
0.0006336816271
0.001002798336
-0.001149857975
-0.001189561223
0.001000966433
0.001338351443
-0.001236963681
-0.001438676516
0.001189613406
0.001485903194
-0.001131388031
-0.001481103402
0.001182331522
0.001430032938
-0.0009153045332
-0.001341528115
0.001030744977
0.001225973955
-0.0006715429537
-0.001093871046
0.0008104686374
0.0009548546013
-0.0004546910487
-0.0008168701799
0.0005856050937
0.0006858909982
-0.000287736344
-0.0005660130264
0.0003940663161
0.0004596412825
-0.0001718360476
-0.0003676762346
0.0002494940466
0.0002899948514
-9.755218571e-05
-0.000225709812
0.0001497725524
0.0001734785168
-5.291208193e-05
-0.000131740809
8.575889063e-05
9.889007482e-05
-2.74932053e-05
-7.339206223e-05
4.702717983e-05
5.38572002e-05
-1.367452291e-05
-3.90720742e-05
2.473450675e-05
2.801203819e-05
-6.474802951e-06
-1.983277864e-05
1.245521544e-05
1.385229956e-05
-2.88269256e-06
-9.530788165e-06
5.96656721e-06
6.446690693e-06
-1.180286262e-06
-4.275928017e-06
2.684125749e-06
2.771800766e-06
-4.281656018e-07
-1.748603826e-06
1.108740875e-06
1.067782963e-06
-1.294407047e-07
-6.268660232e-07
4.054216717e-07
3.507342789e-07
-2.937016981e-08
-1.849217226e-07
1.236949708e-07
9.052948305e-08
-4.112287022e-09
-4.034541049e-08
2.850234764e-08
1.592973767e-08
-2.352362541e-10
-5.363127822e-09
4.130718875e-09
1.456466357e-09
-1.46818152e-11
-2.879043021e-10
2.648357937e-10
3.396348114e-11
-2.019419687e-12
-1.852785527e-12
8.839752275e-12
1.304726558e-12
-2.184790935e-12
4.587747344e-12
-4.614287851e-12
3.328211972e-05
-6.012182618e-05
0.0001451915977
-0.0001466901525
7.2803144e-05
-7.123877218e-05
0.0001450568866
7.528949372e-05
-0.000143294868
-7.38588711e-05
0.0001417938651
7.440634955e-05
-0.0001402473668
-7.253037012e-05
0.0001383017901
7.145876025e-05
-0.0001356710634
-6.800814299e-05
0.0001321534971
-1.152490949e-05
-0.0001295235397
-5.540489944e-05
0.0001963747274
-0.0004221330826
-0.0003799242393
0.0002164713353
0.0005855420391
-0.0008236951635
-0.0007951079863
0.0006252839429
0.0009934571751
-0.001094992391
-0.001166600493
0.0009581042342
0.001303400727
-0.001184371953
-0.00139673751
0.001137172187
0.001443830233
-0.001110707676
-0.001445933544
0.001148945018
0.001407583944
-0.0009334569708
-0.001335581719
0.00103096968
0.001237966214
-0.0007176906674
-0.001123058938
0.0008419074148
0.0009987595579
-0.0005122002753
-0.0008720321259
0.0006357544597
0.0007484200904
-0.0003429172864
-0.0006320749072
0.0004491250652
0.0005258328772
-0.0002171469292
-0.0004313028114
0.0002993553329
0.0003490784204
-0.0001309098266
-0.0002789842699
0.0001895879526
0.0002203012844
-7.550372381e-05
-0.0001719714727
0.0001147151396
0.0001327599176
-4.178327757e-05
-0.0001013844404
6.656526758e-05
7.660301939e-05
-2.219588996e-05
-5.726475005e-05
3.711205799e-05
4.234836375e-05
-1.128816114e-05
-3.096977751e-05
1.987343123e-05
2.238354879e-05
-5.45686066e-06
-1.597487933e-05
1.018589764e-05
1.124466427e-05
-2.473680907e-06
-7.793959079e-06
4.958023445e-06
5.308627329e-06
-1.028161577e-06
-3.543969419e-06
2.260145494e-06
2.311340684e-06
-3.779724561e-07
-1.466672568e-06
9.433719995e-07
9.009374379e-07
-1.160644815e-07
-5.323493597e-07
3.480827984e-07
3.001882751e-07
-2.707773292e-08
-1.599310603e-07
1.074715391e-07
7.948178104e-08
-4.054445996e-09
-3.624580242e-08
2.542465816e-08
1.485148857e-08
-2.788065616e-10
-5.317644544e-09
3.979491132e-09
1.605138516e-09
-1.905444757e-11
3.371752944e-10
5.988855184e-11
-3.824796149e-10
6.664045228e-05
-6.842743824e-05
0.0001371739623
-0.0001394206097
7.227080526e-05
-7.338631105e-05
0.0001404673246
7.269321064e-05
-0.0001401026091
-7.100600545e-05
0.000138346966
6.959579754e-05
-0.0001351463112
-6.495257939e-05
0.0001304377561
6.276742455e-05
-0.0001242385661
-5.527615387e-05
0.0001166883207
5.326748621e-05
-0.0001080410247
-4.389276495e-05
9.861599123e-05
-4.221096921e-05
-9.819181459e-05
-1.990715997e-05
0.0001601964391
-0.0004183252079
-0.0003171641846
0.0002273686411
0.0005080268601
-0.000784897519
-0.0007107229713
0.0005884146912
0.0009071166666
-0.001040804121
-0.001081977147
0.0008987736686
0.001223912568
-0.001140268804
-0.001325840934
0.001081115866
0.001384892253
-0.001094397026
-0.001401852991
0.001115754459
0.001380395667
-0.0009487788719
-0.001326198606
0.001028812566
0.001246077614
-0.0007571466731
-0.001147241261
0.0008676591561
0.001036661663
-0.0005634410727
-0.0009205956219
0.0006795675388
0.000804424609
-0.0003945919403
-0.0006922886735
0.0004994605849
0.0005873957158
-0.0002620337129
-0.0004917718662
0.0003472582367
0.0004065373356
-0.000165992594
-0.0003320443038
0.0002299345368
0.0002680993596
-0.0001007444703
-0.0002140946997
0.0001456798977
0.000169157543
-5.874589285e-05
-0.0001322774963
8.862489089e-05
0.000102395516
-3.294939404e-05
-7.84729164e-05
5.187991613e-05
5.953827671e-05
-1.775641445e-05
-4.471392437e-05
2.923693186e-05
3.322927183e-05
-9.155970585e-06
-2.442378256e-05
1.583457636e-05
1.77419028e-05
-4.479689336e-06
-1.272503356e-05
8.202830979e-06
8.999748743e-06
-2.050205788e-06
-6.266222977e-06
4.028777067e-06
4.286465433e-06
-8.582957576e-07
-2.873556576e-06
1.849219056e-06
1.882069032e-06
-3.176964139e-07
-1.199850858e-06
7.76149175e-07
7.411582805e-07
-9.882699526e-08
-4.411011742e-07
2.887043577e-07
2.511236888e-07
-2.395069389e-08
-1.354402211e-07
9.110631578e-08
6.823854162e-08
-4.023215762e-09
2.261940408e-08
1.281168884e-08
-3.143153919e-08
6.922675415e-05
-6.886432787e-05
0.0001410513201
-0.0001401897769
7.34096049e-05
-7.140710753e-05
0.0001381188374
6.76330198e-05
-0.0001339908776
-6.114080289e-05
0.0001274351961
5.771494006e-05
-0.0001186064171
-4.718553373e-05
0.000108022747
4.531775871e-05
-9.636564942e-05
-3.331652758e-05
8.43218252e-05
3.307918617e-05
-7.248402797e-05
-2.193129524e-05
6.130507604e-05
2.272936534e-05
-5.10891631e-05
-1.366581169e-05
4.200407909e-05
-9.023655186e-05
-4.590491226e-05
1.494907298e-05
0.0001211546809
-0.0003936716798
-0.0002464070033
0.0002297864403
0.0004102057476
-0.0007225444673
-0.0005954369039
0.0005340364558
0.0007838463254
-0.0009722714334
-0.0009591139955
0.0008227990527
0.001108486124
-0.001089011532
-0.001223416306
0.001012804949
0.001299527802
-0.001072801809
-0.001336134372
0.001073351657
0.001335501617
-0.000957892625
-0.001302038997
0.001018390935
0.001241474498
-0.0007898437743
-0.001160153479
0.0008855431717
0.001064406194
-0.0006089833763
-0.00096018242
0.0007165043839
0.0008526311988
-0.0004428977657
-0.0007460727386
0.0005450062156
0.0006439481111
-0.0003061358179
-0.0005486819343
0.0003929737091
0.0004618353217
-0.0002021774358
-0.000384246762
0.0002702464984
0.0003161699593
-0.0001280843682
-0.0002574050333
0.000178051912
0.0002074276158
-7.806116906e-05
-0.0001655026781
0.0001127737875
0.0001307786439
-4.58362366e-05
-0.0001023607103
6.882213748e-05
7.936405076e-05
-2.592819158e-05
-6.095333958e-05
4.050841488e-05
4.636471925e-05
-1.409722755e-05
-3.491996227e-05
2.298221328e-05
2.602940078e-05
-7.328738234e-06
-1.919063034e-05
1.253355508e-05
1.39825949e-05
-3.609825446e-06
-1.005760742e-05
6.533569533e-06
7.13221628e-06
-1.660864915e-06
-4.978020355e-06
3.225257606e-06
3.412858992e-06
-6.995336967e-07
-2.292754932e-06
1.487038878e-06
1.504905546e-06
-2.625208908e-07
-9.616631362e-07
6.285056498e-07
5.95519536e-07
-8.3563059e-08
2.363857077e-07
2.021459478e-07
-3.55048047e-07
6.782881923e-05
-6.619928978e-05
0.0001425793074
-0.0001360834156
6.60895657e-05
-5.490639976e-05
0.0001248389183
5.003902868e-05
-0.000110027643
-3.368966444e-05
9.363123811e-05
3.352409871e-05
-7.737881259e-05
-1.859238928e-05
6.241565595e-05
2.067879824e-05
-4.933957008e-05
-9.703542326e-06
3.834504118e-05
1.203003564e-05
-2.937101295e-05
-4.886621511e-06
2.221647395e-05
6.700175705e-06
-1.662070697e-05
-2.399188244e-06
1.231358913e-05
1.457485758e-06
-9.042944465e-06
-8.066909576e-07
8.387942646e-06
-0.0001151977222
-3.576222225e-05
4.990592769e-05
0.0001010058582
-0.00035975772
-0.0002058623474
0.0002208561749
0.000344684939
-0.0006510236198
-0.000506346232
0.0004802969143
0.0006769821013
-0.0008933705115
-0.0008425429556
0.0007450780041
0.0009907505151
-0.001027370254
-0.001112301581
0.0009382995944
0.001201304908
-0.001041186412
-0.001255222228
0.001021889491
0.001274472499
-0.0009575867892
-0.001261770882
0.0009979449101
0.001221383742
-0.0008142122029
-0.001158632569
0.0008937595116
0.001079069028
-0.00064807976
-0.0009881305542
0.0007452842024
0.0008909170292
-0.0004874331345
-0.0007917060834
0.0005850095308
0.0006941210289
-0.0003488589211
-0.0006008795349
0.0004357446592
0.0005139800169
-0.000238818586
-0.0004346878839
0.0003098147166
0.0003636715927
-0.0001570010132
-0.0003011256362
0.0002112355301
0.0002468677245
-9.940292364e-05
-0.0002004513842
0.00013858357
0.0001612487727
-6.072181406e-05
-0.0001285333405
8.770127937e-05
0.0001015365949
-3.580837438e-05
-7.949386154e-05
5.361324208e-05
6.167726217e-05
-2.03640987e-05
-4.74158522e-05
3.166519562e-05
3.610771311e-05
-1.113259546e-05
-2.722437193e-05
1.804250094e-05
2.031064164e-05
-5.814634078e-06
-1.498082287e-05
9.880710074e-06
1.091281551e-05
-2.872410002e-06
-7.841499819e-06
5.16158099e-06
5.551389417e-06
-1.321080887e-06
-3.869445876e-06
2.53205157e-06
2.658018014e-06
-5.555806932e-07
1.136827483e-06
1.225734181e-06
-1.807208572e-06
6.992595015e-05
0.0001476644541
-9.660490701e-05
3.393923924e-05
-3.135388564e-07
6.294582697e-05
1.450393722e-05
-4.095753834e-05
-2.144195066e-07
2.665459588e-05
6.181981279e-06
-1.73530303e-05
-1.334339503e-07
1.12989747e-05
2.645399812e-06
-7.355137102e-06
-7.689496252e-08
4.784372124e-06
1.135424849e-06
-3.108098051e-06
-4.333280405e-08
2.015089967e-06
4.897790375e-07
-1.302685324e-06
-2.631755784e-08
8.388778876e-07
1.417314787e-07
-5.402521529e-07
-1.107652869e-09
3.998086771e-07
-1.933140784e-05
-2.247811394e-06
6.833280287e-06
1.473301419e-05
-0.0001245330373
-4.698945573e-05
6.521619608e-05
0.0001062672372
-0.0003308840607
-0.000195500798
0.0002138059115
0.0003125174895
-0.0005870062349
-0.0004506348821
0.0004374343107
0.000600141694
-0.000816417593
-0.0007500643822
0.0006766171182
0.0008898155068
-0.000961409094
-0.001010457738
0.0008663850298
0.001105456133
-0.001001239371
-0.001170991543
0.0009663916995
0.001205832282
-0.0009473521219
-0.001210972533
0.0009691538063
0.001189171602
-0.0008291800404
-0.001144390241
0.000892381317
0.001081186492
-0.0006799776602
-0.001004421006
0.0007656593594
0.0009187257237
-0.0005273138871
-0.0008283010797
0.0006187470599
0.0007368402536
-0.000389400394
-0.0006472875489
0.0004747442596
0.0005619049612
-0.0002752384836
-0.0004823445428
0.0003478818082
0.0004096586796
-0.0001869740417
-0.000344401024
0.0002446048443
0.0002867314522
-0.0001224376873
-0.0002364874154
0.0001656141881
0.0001932805866
-7.744803297e-05
-0.000156569547
0.0001082695567
0.000125727124
-4.737477837e-05
-0.0001000878018
6.84616886e-05
7.898790812e-05
-2.801766622e-05
-6.178863685e-05
4.190226847e-05
4.789659087e-05
-1.598959148e-05
-3.677432092e-05
2.481376607e-05
2.794610432e-05
-8.764131273e-06
-2.099701029e-05
1.41890051e-05
1.5569997e-05
-4.559141304e-06
-1.136003459e-05
7.812045232e-06
8.105994417e-06
-2.13397271e-06
3.862169147e-06
3.859653064e-06
-5.588588863e-06
-3.941877911e-07
2.945300045e-07
-2.665234911e-07
3.657113401e-07
2.033163594e-07
-3.232717409e-07
-1.533438918e-07
2.728797197e-07
1.2375417e-07
-2.216339551e-07
-7.704081045e-08
1.745900735e-07
7.023931221e-08
-1.343391197e-07
-3.774464007e-08
1.016348081e-07
3.939671897e-08
-7.611250543e-08
-2.021737567e-08
5.685962962e-08
2.423876188e-08
-4.281955807e-08
-1.431594991e-08
3.316964143e-08
1.851522429e-09
-2.784845135e-08
-7.09537261e-09
3.444265701e-08
-2.25075084e-06
-8.394064208e-08
7.033261642e-07
1.629170688e-06
-3.210954612e-05
-8.228609426e-06
1.502423939e-05
2.530035703e-05
-0.0001303773927
-5.882229983e-05
7.551624573e-05
0.000113650988
-0.0003091977286
-0.0001920967614
0.0002080762298
0.000293171496
-0.0005346480329
-0.0004126253178
0.0004035852478
0.0005436408794
-0.000747880525
-0.0006779124877
0.0006189434856
0.0008068123473
-0.0008970539389
-0.0009224668335
0.0008009826271
0.001018510263
-0.0009565483806
-0.001090528733
0.0009108188897
0.001136230465
-0.0009288365084
-0.001155316625
0.0009349620037
0.001149153469
-0.0008353069405
-0.001120424477
0.0008830078715
0.001072670604
-0.0007043447864
-0.001009955914
0.0007779365219
0.0009362971636
-0.000561851788
-0.0008556167277
0.0006458768157