/*--------------------------------*- C++ -*----------------------------------*\
| =========                 |                                                 |
| \\      /  F ield         | OpenFOAM: The Open Source CFD Toolbox           |
|  \\    /   O peration     | Version:  2.1.x                                 |
|   \\  /    A nd           | Web:      www.OpenFOAM.org                      |
|    \\/     M anipulation  |                                                 |
\*---------------------------------------------------------------------------*/
FoamFile
{
    version     2.0;
    format      ascii;
    class       volVectorField;
    location    "2.3";
    object      Uf;
}
// * * * * * * * * * * * * * * * * * * * * * * * * * * * * * * * * * * * * * //

dimensions      [0 1 -1 0 0 0 0];

internalField   nonuniform List<vector> 
2828
(
(-0.03605370223 0 -0.001327926065)
(-0.09255848136 0 -0.008792325627)
(-0.775105762 0 -0.09172927353)
(-1.121561151 0 0.1158753887)
(-0.5557366163 0 0.07107640785)
(-0.4147242819 0 -0.1269435688)
(-0.09741799531 0 -0.02313952927)
(-0.08683933471 0 -0.0150022917)
(-0.07625936968 0 -0.01670478984)
(-0.035808425 0 -2.287946145e-05)
(-0.1216663011 0 -0.01417814939)
(-0.3464244023 0 -0.03307392784)
(-0.4753061145 0 0.04723553833)
(-0.2095404413 0 0.03591750526)
(-0.04055072526 0 0.03269778665)
(-0.2100653636 0 0.1167114173)
(-0.5386211595 0 0.3050917954)
(-0.6263551708 0 -0.216307294)
(-0.6344691538 0 -0.2110605972)
(-0.3276054105 0 -0.1030594016)
(-0.07748655921 0 -0.02036717586)
(-0.07318193489 0 -0.01223085807)
(-0.06755263348 0 -0.01418872376)
(-0.04548563135 0 0.004157943235)
(-0.03489519245 0 -0.0001583535354)
(-0.03635193104 0 0.00729888865)
(-0.009105994446 0 0.01731190543)
(-0.03779043355 0 0.03095687306)
(-0.04884161477 0 0.04298320075)
(-0.2290583856 0 0.1261796342)
(-0.5067887927 0 0.2913595896)
(-0.6571338872 0 0.3920175138)
(-0.6523166052 0 0.4039702956)
(-0.1781520591 0 -0.06601899072)
(-0.4245251745 0 -0.146604536)
(-0.3944192574 0 -0.133611816)
(-0.2465236558 0 -0.07856598005)
(-0.06380361904 0 -0.01828833217)
(-0.06264210089 0 -0.0101375433)
(-0.0600742335 0 -0.00986669642)
(-0.06256487846 0 0.004685889791)
(-0.07674420167 0 0.007202057763)
(-0.03080539129 0 0.007640829635)
(-0.04416545292 0 0.03282082847)
(-0.0644014649 0 0.05571207503)
(-0.07416056445 0 0.06908945129)
(-0.1976723323 0 0.1098627143)
(-0.4022963175 0 0.2353116677)
(-0.5279306086 0 0.3197779585)
(-0.5259302091 0 0.3283524127)
(-0.417297186 0 0.273673883)
(-0.3100172959 0 0.2166754234)
(-0.3751594749 0 -0.4921986186)
(-0.1501084449 0 -0.06645780077)
(-0.2262085055 0 -0.07856937733)
(-0.2348970719 0 -0.08053149113)
(-0.1854913246 0 -0.05991295819)
(-0.05995403778 0 -0.01638994706)
(-0.06433684377 0 -0.0104215231)
(-0.0561112854 0 -0.002218595724)
(-0.06408691359 0 0.0003053544761)
(-0.2376764942 0 0.03032920394)
(-0.08674973905 0 0.02119972225)
(-0.1120999065 0 0.09432096877)
(-0.129868853 0 0.11958428)
(-0.1172934147 0 0.1171760894)
(-0.1599162426 0 0.09088383487)
(-0.2724393883 0 0.1631468606)
(-0.3469473366 0 0.2140151713)
(-0.3314396979 0 0.2097264989)
(-0.2191247684 0 0.1457151744)
(-0.1440895278 0 0.1047867785)
(-0.06122892443 0 0.06001167581)
(-0.12807882 0 -0.03386041872)
(-0.1314615326 0 0.07591769129)
(-0.706161746 0 0.08025145348)
(-1.163384994 0 0.7884224748)
(-0.184053429 0 -0.06383230852)
(-0.222930974 0 -0.0762436546)
(-0.1095846143 0 -0.01196152804)
(-0.1911706616 0 -0.03219724051)
(-0.1080237014 0 0.01917141583)
(-0.09026095146 0 0.02111190686)
(-0.4908816344 0 0.06908227051)
(-0.1829268108 0 0.06719108084)
(-0.2267700432 0 0.2093419195)
(-0.1820226548 0 0.1822440721)
(-0.1460806128 0 0.1617348804)
(-0.1354923772 0 0.07893466588)
(-0.1591585681 0 0.09837130986)
(-0.1757358803 0 0.1108351342)
(-0.1417965845 0 0.09715336524)
(-0.04600699543 0 0.1083418254)
(-0.02188507231 0 0.06378296434)
(-0.02457831775 0 0.05719047565)
(-0.04896965532 0 0.09958003051)
(-1.048801027 0 3.64119133)
(-1.237805997 0 0.2672695517)
(0.6011796007 0 0.1066309551)
(1.416543569 0 0.1401306846)
(0.6479599709 0 -0.03479020815)
(0.1679196779 0 -0.1863679947)
(-0.1181782396 0 -0.185703168)
(-0.210069798 0 -0.1284933795)
(-0.7789291563 0 -0.2228460085)
(-0.3124522761 0 0.1465454209)
(-0.3170574661 0 0.07064228856)
(-0.2474485515 0 0.08084303078)
(-0.4192263435 0 0.412398748)
(-0.2609684541 0 0.2732082016)
(-0.1481972803 0 0.1927922167)
(-0.1451335556 0 0.208951298)
(0.1127407971 0 0.2085743892)
(-0.1536392219 0 0.2854989344)
(-0.1414355253 0 0.3283172865)
(-0.08163523394 0 0.2429602637)
(-0.02232048991 0 0.07276510211)
(-0.02810116346 0 0.06228825902)
(-0.04487057201 0 0.09556211924)
(-0.06380976892 0 0.1369121228)
(-30.93392468 0 57.06062706)
(361.2576749 0 418.5146276)
(361.2135747 0 418.5235281)
(361.0536568 0 418.361414)
(360.6671547 0 417.9211354)
(359.6299166 0 416.7218738)
(356.6816046 0 413.3068565)
(348.2816949 0 403.5743857)
(326.0790954 0 377.8476227)
(277.4371554 0 321.4835989)
(196.1297305 0 227.2677387)
(96.684717 0 112.0349626)
(23.93724539 0 27.73771474)
(1.383749835 0 0.8076553637)
(0.7576997175 0 0.2654788755)
(0.3830476084 0 0.1354678674)
(-0.03330664109 0 0.1636335234)
(-0.1687353228 0 0.3281233148)
(-0.1660272383 0 0.4284620605)
(-0.1234602892 0 0.4542276836)
(-0.03199588864 0 0.1300735532)
(-0.02424213559 0 0.05393663356)
(-0.03236728247 0 0.06968544677)
(-0.04416694645 0 0.09533754391)
(-0.0581137174 0 0.1264611299)
(-0.0722975321 0 0.1622859484)
(-30.96543138 0 57.42458941)
(344.7904497 0 403.2588728)
(357.1152285 0 414.6530704)
(359.3561641 0 416.7333375)
(359.9500045 0 417.2607449)
(359.9322776 0 417.1720269)
(359.3400904 0 416.4507107)
(357.684466 0 414.5120381)
(353.632128 0 409.8039564)
(344.2933075 0 398.9745112)
(324.5298282 0 376.0679261)
(287.1906062 0 332.796682)
(226.4021702 0 262.3540808)
(145.6550916 0 168.7842795)
(65.62020352 0 76.04025027)
(15.48695048 0 17.943053)
(0.9180625546 0 1.193424295)
(-0.1994353679 0 0.6163962877)
(-0.1443113888 0 0.7250103704)
(-0.08733846143 0 0.6891939816)
(-0.04500368894 0 0.1099595139)
(-0.02542864951 0 0.0539294461)
(-0.02967459532 0 0.06338374899)
(-0.03707734288 0 0.0803931478)
(-0.04538706543 0 0.1000076625)
(-0.05476667988 0 0.1214633909)
(-0.06313711348 0 0.1444320464)
(-31.07111901 0 57.23660702)
(-31.0800344 0 57.26624305)
(264.2790059 0 329.0710564)
(335.0993855 0 394.3059662)
(350.5222947 0 408.5288449)
(355.5283656 0 413.1410912)
(357.5141482 0 414.9439975)
(358.2587565 0 415.5598821)
(358.2093286 0 415.3647916)
(357.2566999 0 414.1772152)
(354.7739874 0 411.2462666)
(349.365842 0 404.942836)
(338.4516517 0 392.2698759)
(317.9159483 0 368.4544776)
(282.5193466 0 327.4227281)
(228.2717887 0 264.5491648)
(157.4568373 0 182.4787931)
(83.70424417 0 97.00573636)
(28.67763831 0 33.23484059)
(4.485433284 0 5.200187229)
(0.370663951 0 0.5151906507)
(-0.01425397388 0 0.1698454671)
(-0.02747832692 0 0.06523166533)
(-0.02427771684 0 0.05571323871)
(-0.02693809605 0 0.06185542342)
(-0.03007857323 0 0.07014800675)
(-0.03392982874 0 0.08057228681)
(-0.04042666552 0 0.09691918582)
(-31.18281183 0 57.43957485)
(-31.16554872 0 57.40326909)
(71.34099147 0 151.608165)
(257.6844146 0 323.0001635)
(320.6022954 0 380.9188962)
(341.6697279 0 400.322079)
(350.0898463 0 408.0682682)
(353.930053 0 411.573497)
(355.7439964 0 413.174385)
(356.3993893 0 413.6422082)
(356.0819093 0 413.091998)
(354.5284824 0 411.1714084)
(350.9741927 0 406.9694709)
(343.9401823 0 398.7587432)
(330.9593184 0 383.6720825)
(308.4812895 0 357.5900799)
(272.4742774 0 315.8369426)
(220.4582183 0 255.5360753)
(155.1274255 0 179.8080451)
(87.51215216 0 101.4348737)
(34.55158603 0 40.04839269)
(7.456410424 0 8.642851253)
(0.3078289478 0 0.3859667194)
(0.01067049115 0 0.09939423003)
(0.001511610693 0 0.09232290044)
(0.000106301237 0 0.06715638895)
(-0.0004664464469 0 0.04406540788)
(-0.007794771485 0 0.04371752968)
(-31.26193027 0 57.58635288)
(-31.2496781 0 57.56349304)
(-31.24821966 0 57.55874077)
(105.2508896 0 182.8546738)
(241.8037197 0 308.3799604)
(303.5064335 0 365.1441436)
(330.234815 0 389.74097)
(342.6826653 0 401.1857895)
(348.946376 0 406.917204)
(352.2290637 0 409.8697926)
(353.8383677 0 411.2245243)
(354.2516172 0 411.3788762)
(353.471751 0 410.2582462)
(351.0921545 0 407.3497429)
(346.2102065 0 401.5837096)
(337.2572212 0 391.128097)
(321.8465405 0 373.2080554)
(296.8724055 0 344.2181147)
(259.264796 0 300.5955568)
(207.8268053 0 240.9491819)
(145.9860824 0 169.2488524)
(83.69355671 0 97.02820993)
(34.89549837 0 40.45462865)
(8.640755873 0 10.01762886)
(0.7229587921 0 0.8478924545)
(0.02866094179 0 0.06314783318)
(0.01930119614 0 0.04722279903)
(0.03644980423 0 0.1122055412)
(0.01936155374 0 0.08003689793)
(-31.34144291 0 57.73340507)
(-31.33431835 0 57.71935317)
(-31.32611466 0 57.70800171)
(-31.32131671 0 57.6973443)
(107.8171251 0 185.2817099)
(222.000621 0 290.1667854)
(284.4311383 0 347.5599838)
(316.4430067 0 376.9980845)
(333.2162013 0 392.4128287)
(342.3768334 0 400.8049583)
(347.5354839 0 405.4830232)
(350.3926178 0 407.9922305)
(351.7112597 0 409.0015691)
(351.7272743 0 408.6702388)
(350.2880838 0 406.7580981)
(346.8470489 0 402.5948378)
(340.3711337 0 394.9606508)
(329.219175 0 381.9386694)
(311.1029205 0 360.8662933)
(283.3478466 0 328.6356813)
(243.7598958 0 282.6978513)
(192.308426 0 223.0141164)
(133.2302458 0 154.4958172)
(75.93301865 0 88.05032258)
(32.10309657 0 37.22556043)
(8.426181392 0 9.770748786)
(0.8975811615 0 1.042108057)
(0.02669224428 0 0.08134469629)
(0.01507234503 0 0.05428906908)
(-31.43467623 0 57.90625397)
(-31.43081562 0 57.89852882)
(-31.42751221 0 57.89082722)
(-31.4193746 0 57.87638977)
(-31.39992549 0 57.84921156)
(-27.43822069 0 61.39881874)
(106.9299239 0 184.5105065)
(205.9495281 0 275.4087613)
(266.4528031 0 330.9958164)
(301.6948107 0 363.3844802)
(322.1933392 0 382.2145535)
(334.3153172 0 393.3248728)
(341.6027757 0 399.9596788)
(345.9629354 0 403.856007)
(348.3804792 0 405.8925544)
(349.2897228 0 406.4237678)
(348.739211 0 405.4189149)
(346.432176 0 402.4811144)
(341.6865479 0 396.7859923)
(333.352468 0 386.9780705)
(319.7477569 0 371.0917891)
(298.7301207 0 346.6331424)
(268.1009592 0 311.0468188)
(226.5499065 0 262.8105546)
(175.1662643 0 203.1863098)
(118.9438693 0 137.9633713)
(66.79266177 0 77.4710061)
(28.30635667 0 32.83149895)
(7.835951986 0 9.088701596)
(1.080517194 0 1.254458499)
(-31.526925 0 58.07718139)
(-31.52587388 0 58.0738482)
(-31.51724652 0 58.05957639)
(-31.49200212 0 58.02621549)
(-31.44567014 0 57.96692003)
(-31.37987309 0 57.87952724)
(-10.38151657 0 76.9413092)
(117.2422306 0 193.9413313)
(200.3329457 0 270.2135839)
(254.2572386 0 319.7439074)
(288.9944965 0 351.6569431)
(311.2604659 0 372.1032367)
(325.5574351 0 385.2078869)
(334.7671246 0 393.608257)
(340.6608577 0 398.918216)
(344.2769961 0 402.0702665)
(346.1646638 0 403.5330384)
(346.5156716 0 403.4231348)
(345.2127525 0 401.5363205)
(341.8173203 0 397.3189468)
(335.5173071 0 389.7992499)
(325.0694464 0 377.5157237)
(308.8040657 0 358.5196686)
(284.8104872 0 330.5879078)
(251.4602338 0 291.8274876)
(208.3786011 0 241.8005438)
(157.7193573 0 183.001436)
(105.0272632 0 121.8571988)
(58.35528361 0 67.70475413)
(24.78149859 0 28.7516601)
(-31.6238946 0 58.25779096)
(-31.6159852 0 58.24628273)
(-31.58123365 0 58.2058143)
(-31.51567757 0 58.12677588)
(-31.42364152 0 58.00257633)
(-31.30601875 0 57.82430806)
(-31.16296364 0 57.58462206)
(39.52808575 0 122.3960847)
(140.8559994 0 215.5085135)
(204.7367981 0 274.1895534)
(249.0847955 0 314.931392)
(280.2838755 0 343.5910522)
(302.1078991 0 363.6264235)
(317.270298 0 377.5224202)
(327.7374662 0 387.0773196)
(334.8803635 0 393.5393012)
(339.6049127 0 397.7223768)
(342.4604607 0 400.1007382)
(343.704118 0 400.861146)
(343.3320113 0 399.92257)
(341.0727567 0 396.9178305)
(336.3520368 0 391.1453419)
(328.2463822 0 381.5104445)
(315.465087 0 366.5006206)
(296.4319008 0 344.2772983)
(269.5724545 0 313.0069985)
(233.9127294 0 271.5539985)
(189.9744726 0 220.5182742)
(140.6254316 0 163.2218522)
(91.21733295 0 105.8694469)
(-31.71813352 0 58.44207521)
(-31.66486857 0 58.39185265)
(-31.55877444 0 58.26807961)
(-31.41728176 0 58.06555673)
(-31.23691269 0 57.76885104)
(-30.99674562 0 57.34368413)
(-30.6550939 0 56.71956478)
(-30.20824022 0 55.89163961)
(102.9964788 0 180.4005393)
(167.5566586 0 239.9025095)
(213.5268348 0 282.1772291)
(248.5370145 0 314.3542444)
(275.205495 0 338.8532743)
(295.2843169 0 357.2833528)
(310.2139897 0 370.9641025)
(321.179633 0 380.9783497)
(329.1092805 0 388.1688064)
(334.6898638 0 393.1498822)
(338.3838132 0 396.3194465)
(340.4440214 0 397.8681442)
(340.9202081 0 397.7787732)
(339.6471072 0 395.8059988)
(336.2153346 0 391.4370746)
(329.9327367 0 383.8425026)
(319.7972203 0 371.8409823)
(304.5230463 0 353.9272915)
(282.6879584 0 328.4411445)
(253.0899797 0 293.9799844)
(215.4478928 0 250.2112225)
(171.6535699 0 199.3255169)
(-31.72675342 0 58.60318439)
(-31.46533422 0 58.29071464)
(-31.12221175 0 57.67770946)
(-30.6165971 0 56.72852998)
(-29.87155536 0 55.32357223)
(-28.74327922 0 53.20608011)
(-26.91517753 0 49.79303159)
(-24.47686419 0 45.26486578)
(84.5663487 0 162.1539769)
(144.3693175 0 218.2627609)
(187.1897697 0 257.8174868)
(221.6678982 0 289.5614347)
(249.7455023 0 315.3809691)
(272.3917511 0 336.1887752)
(290.4009006 0 352.7193049)
(304.5156312 0 365.6538048)
(315.4172006 0 375.613213)
(323.6962791 0 383.1307096)
(329.8293905 0 388.6286203)
(334.1636457 0 392.4023456)
(336.9081191 0 394.6091958)
(338.1235581 0 395.2537192)
(337.7043174 0 394.1634092)
(335.3507165 0 390.9531246)
(330.5332226 0 384.980399)
(322.4585143 0 375.3036001)
(310.0580863 0 360.6667821)
(292.0349617 0 339.5524907)
(267.0296585 0 310.3734204)
(233.2150724 0 271.000848)
(-3.46767794 0 4.397359532)
(-3.213187635 0 4.389412669)
(-3.004311069 0 4.296058179)
(-2.779836597 0 4.093736646)
(-2.456001083 0 3.67857967)
(-1.938623578 0 2.896824704)
(-1.38620624 0 2.001750875)
(75.61782633 0 148.2428053)
(129.9171637 0 203.9977819)
(168.6656241 0 240.4331124)
(200.8287353 0 270.2234189)
(228.1836815 0 295.4464989)
(251.3730841 0 316.7880877)
(270.8082987 0 334.653467)
(286.8753892 0 349.4052614)
(299.9713678 0 361.4083887)
(310.4917162 0 371.0216354)
(318.8044217 0 378.5743167)
(325.2243086 0 384.3421461)
(329.9943897 0 388.5285783)
(333.2686034 0 391.2461517)
(335.0961612 0 392.497648)
(335.4003158 0 392.150282)
(333.9511317 0 389.9023535)
(330.3306561 0 385.2412073)
(323.8929131 0 377.3952934)
(313.7261438 0 365.2891046)
(298.6331382 0 347.5192422)
(278.1008755 0 323.487622)
(-2.909876068 0 4.564417931)
(-2.772430461 0 4.369164063)
(-2.592984862 0 4.089961521)
(-2.092934141 0 3.260035366)
(-1.271261588 0 1.836543119)
(-0.7785001377 0 0.9489536088)
(-0.6306642136 0 0.6877924285)
(50.8268454 0 99.93087795)
(117.3970051 0 188.8861728)
(154.7463348 0 226.6445123)
(184.7378806 0 255.0184903)
(210.6348201 0 279.0753093)
(233.2740787 0 299.9543993)
(252.9776618 0 318.0532249)
(269.9505437 0 333.6021127)
(284.3911864 0 346.8044378)
(296.5200871 0 357.8702032)
(306.571006 0 367.0116913)
(314.7733453 0 374.4307587)
(321.330778 0 380.3010059)
(326.3803041 0 384.7533286)
(329.9844294 0 387.8580345)
(332.2224895 0 389.6067952)
(333.0560579 0 389.887139)
(332.3088864 0 388.4518706)
(329.6426732 0 384.8810096)
(324.5260339 0 378.5397186)
(316.2288454 0 368.5688552)
(305.1335043 0 355.420905)
(-0.5250160754 0 0.4497149348)
(-0.5083755514 0 0.3976381204)
(-0.6036985668 0 0.6234334039)
(-0.7531282712 0 0.8337985159)
(-0.759850925 0 0.8574185632)
(-0.7126480892 0 0.8142481232)
(-0.6125033271 0 0.6128917617)
(4.172706512 0 9.737987663)
(-21.68066633 0 119.9128792)
(-141.8811246 0 103.8723134)
(-139.3661784 0 108.0555757)
(-130.3454697 0 112.7074445)
(-119.2882803 0 118.1178963)
(-105.1824965 0 125.1947333)
(-87.47863436 0 134.4290931)
(-66.55936138 0 145.7213127)
(-43.75569158 0 158.355262)
(-20.92576179 0 171.246557)
(0.2023989592 0 183.3399091)
(18.50128365 0 193.8304036)
(34.30056155 0 203.8504465)
(49.03373467 0 213.67763)
(64.33336505 0 223.6944309)
(80.79440504 0 234.1832443)
(98.68623048 0 245.3198909)
(118.042813 0 257.1482686)
(138.6652443 0 269.522866)
(160.0610303 0 282.0237883)
(-0.0741280822 0 -0.007158853428)
(-0.9063398082 0 1.00789027)
(-0.9026398807 0 1.020113017)
(-0.8330866879 0 0.9540447302)
(-0.75700464 0 0.8578876786)
(-0.5586318555 0 0.00392784874)
(-0.4098358679 0 0.2245937045)
(-142.5902626 0 97.16473097)
(-152.2711408 0 103.4059745)
(-152.8160317 0 103.765019)
(-152.7422656 0 103.7455073)
(-152.5717537 0 103.6811382)
(-152.3866649 0 103.5938378)
(-152.1837346 0 103.4552152)
(-151.9038393 0 103.2174443)
(-151.424202 0 102.8005104)
(-150.5680711 0 102.0876903)
(-149.1571026 0 100.9588905)
(-147.0278923 0 99.30545819)
(-143.8229997 0 97.13862735)
(30.74538713 0 200.306659)
(42.32998054 0 207.3318418)
(50.4019682 0 212.4691275)
(57.68126905 0 217.2824062)
(64.79550715 0 222.0470239)
(71.99430592 0 226.8293254)
(77.93176111 0 230.6409705)
(0.02973608384 0 -0.1944871516)
(-1.071687743 0 1.207484418)
(-0.9705726536 0 1.115588108)
(-0.8352787925 0 0.9597791535)
(-0.8044763049 0 0.8617255912)
(-0.8322920463 0 0.7906900229)
(-0.1603812166 0 0.6402414118)
(-149.956613 0 101.8622264)
(-153.1113165 0 103.9689637)
(-153.1735126 0 104.0211568)
(-152.9654645 0 103.963312)
(-152.6790812 0 103.8949657)
(-152.3468394 0 103.7909922)
(-151.9464003 0 103.6041383)
(-151.3769392 0 103.2547586)
(-150.4202317 0 102.5904007)
(-148.793867 0 101.4139492)
(-146.2849492 0 99.58218531)
(-142.7093306 0 96.98404522)
(-137.6101475 0 93.33390946)
(-129.8066111 0 87.84332101)
(29.92780022 0 198.8221166)
(41.11481799 0 206.0761098)
(47.53930713 0 210.0724635)
(52.89259484 0 213.4218637)
(57.84467518 0 216.606378)
(-1.115830124 0 1.319149033)
(-0.8995773136 0 1.031463576)
(-0.7682416328 0 0.8238532061)
(-0.9858756557 0 0.9491311644)
(-1.08747902 0 1.02413333)
(-1.010881187 0 1.084554823)
(-152.7912447 0 103.783591)
(-153.601636 0 104.2949841)
(-153.4614041 0 104.2383008)
(-153.1898047 0 104.1811072)
(-152.8682978 0 104.1104239)
(-152.5002894 0 103.9725792)
(-152.0063422 0 103.6936666)
(-151.1521084 0 103.1104226)
(-149.487288 0 101.903012)
(-146.6029614 0 99.78134777)
(-142.382469 0 96.68362869)
(-136.6019271 0 92.50005266)
(-128.1644216 0 86.54027459)
(-114.3586793 0 77.0280276)
(-93.51187394 0 62.89180155)
(35.21368234 0 200.7544857)
(42.11083532 0 205.9535974)
(46.87739797 0 209.0866964)
(50.39797499 0 211.3513184)
(-0.08011928882 0 -0.2332985963)
(-0.763428471 0 0.7999213542)
(-0.9835354376 0 0.9649360216)
(-1.255113275 0 1.180050895)
(-1.22266143 0 1.158028239)
(-1.079593616 0 1.212986532)
(-153.8726647 0 104.5127528)
(-153.9391645 0 104.5208762)
(-153.6997808 0 104.4486126)
(-153.3810945 0 104.4052345)
(-153.0313193 0 104.3165473)
(-152.6018263 0 104.1069274)
(-151.8777885 0 103.6281384)
(-150.2807714 0 102.4707592)
(-146.856155 0 99.93566457)
(-141.3548372 0 95.85802481)
(-134.1633458 0 90.58766353)
(-124.5971219 0 83.76209698)
(-109.6616177 0 73.45472338)
(-84.58012339 0 56.52024151)
(-49.11912489 0 32.78767412)
(27.92482463 0 179.7460347)
(38.26494711 0 199.7179775)
(43.06475855 0 205.13453)
(0.4555671406 0 0.1871857763)
(-1.509248896 0 1.385900333)
(-1.428330126 0 1.349037506)
(-1.272741662 0 1.21899012)
(-1.015226511 0 1.247236431)
(-154.3919576 0 104.8574539)
(-154.2048501 0 104.713366)
(-153.8962522 0 104.6717609)
(-153.5429882 0 104.6322663)
(-153.1614242 0 104.49236)
(-152.564845 0 104.1197706)
(-151.152501 0 103.1008576)
(-147.2763429 0 100.2210279)
(-139.0774355 0 94.09327144)
(-128.5665301 0 86.28664947)
(-116.8723899 0 77.83201604)
(-100.4616074 0 66.51008383)
(-72.85647009 0 48.07735783)
(-35.24144923 0 23.23056885)
(-7.6839506 0 5.104846469)
(10.415768 0 67.8519532)
(30.09686343 0 162.2020803)
(-1.570422177 0 1.483156449)
(-1.460946388 0 1.417725068)
(-1.171281448 0 1.138213925)
(-0.6272813386 0 0.9558572489)
(-154.7183388 0 105.0736821)
(-154.4226368 0 104.9109787)
(-154.04879 0 104.9131743)
(-153.6823441 0 104.8459443)
(-153.2053908 0 104.5807946)
(-152.0019583 0 103.7179066)
(-148.0068716 0 100.7454214)
(-135.621028 0 91.44833536)
(-114.2261511 0 75.36322499)
(-98.15097535 0 63.53023082)
(-81.40299422 0 52.11014298)
(-52.18591935 0 33.27819232)
(-16.41375906 0 10.47700129)
(-0.4594234928 0 1.818935042)
(0.8101846501 0 4.40280108)
(0.8185546148 0 4.775754434)
(-0.2082341894 0 0.3052652012)
(-0.7765951483 0 6.677803942)
(-154.9714799 0 105.2611731)
(-154.5856301 0 105.1362427)
(-154.158836 0 105.1545352)
(-153.8057307 0 105.0193529)
(-152.7868485 0 104.2920968)
(-148.5544775 0 101.1348925)
(-131.4612323 0 88.29215634)
(-85.49010842 0 53.55415928)
(-42.00065584 0 20.64498808)
(-36.46708229 0 17.87576385)
(-13.17567524 0 6.428566833)
(0.7859700421 0 4.021324991)
(0.8546296553 0 3.75118465)
(0.7437474896 0 3.099787164)
(0.3291347453 0 1.34061833)
(0.7299911281 0 4.90973514)
(-155.1438182 0 105.4677936)
(-154.6680913 0 105.3696154)
(-154.2446201 0 105.3514053)
(-153.839061 0 105.0847098)
(-147.4276795 0 100.2626394)
(-118.1758854 0 78.26988966)
(-45.3214471 0 23.19335947)
(-9.018259021 0 -4.575749763)
(-9.095807504 0 -4.541106477)
(2.207102209 0 6.271555015)
(1.817014784 0 5.387547543)
(1.267039343 0 4.009183116)
(0.8725874341 0 2.870993463)
(-4.000060013 0 -2.432825881)
(-10.00717786 0 -4.166180089)
(-9.318371335 0 -3.847895718)
(-8.822775727 0 -4.246174907)
(-8.846301318 0 -4.472989066)
(-9.010112808 0 -4.604297244)
(-9.155541705 0 -4.614259852)
(2.114820221 0 4.921790503)
(1.183543553 0 2.834538248)
(-0.09659805623 0 -0.01611473553)
(-0.09429011099 0 -0.01658441564)
(-0.09319054062 0 -0.01883353813)
(-0.08851771605 0 -0.01889275512)
(-0.06780580303 0 -0.01206885146)
(-0.06765858662 0 -0.01132459011)
(-0.03575160918 0 -0.001230242066)
(-0.03741120189 0 -0.004652520624)
(-0.03927202624 0 -0.007237804746)
(-0.1309586118 0 -0.01445138937)
(-0.4529122814 0 -0.04781730244)
(-0.4747639514 0 -0.04262726689)
(-0.5824729549 0 -0.06526902468)
(-0.9898601872 0 0.06593098179)
(-1.302306396 0 0.08082538877)
(-0.8246431953 0 0.08260351849)
(-0.5991495805 0 0.07197464927)
(-0.8400409311 0 0.1005255677)
(-0.3045907554 0 0.04301983589)
(-0.03522612347 0 0.02258943731)
(-0.03882967744 0 0.02972261114)
(-0.04335645866 0 0.0350667807)
(-0.1778136857 0 0.1005611234)
(-0.6726017487 0 -0.2231211698)
(-0.5895026204 0 -0.190243103)
(-0.4106431686 0 -0.1266127531)
(-0.07992838816 0 -0.01517666205)
(-0.08687481382 0 -0.01447405169)
(-0.08374725051 0 -0.02088710243)
(-0.08172769621 0 -0.01353416505)
(-0.09274460249 0 -0.01417410602)
(-0.2349928457 0 0.1292517009)
(-0.3994545054 0 0.22344202)
(-0.3996531776 0 0.2231188114)
(-0.5359925163 0 0.3056446203)
(-0.6438994016 0 0.3749194035)
(-0.63603758 0 0.3683389443)
(-0.6916550575 0 0.4105540255)
(-0.6982491931 0 0.4219558608)
(-0.444088111 0 -0.1547584833)
(-0.5526688106 0 -0.1910275167)
(-0.5359200431 0 -0.1828207025)
(-0.6725020528 0 -0.2288588991)
(-0.6004513074 0 0.3730836891)
(-0.5551282279 0 0.3517107997)
(-0.605081705 0 0.3813827559)
(-0.4898269243 0 0.3182886722)
(-0.1359818632 0 -0.1183717664)
(-0.09728406853 0 -0.06192321818)
(-0.06576276342 0 -0.03383204801)
(-0.1585200404 0 -0.05986494825)
(-0.2592788398 0 -0.09019213707)
(-0.3604650811 0 -0.1257295949)
(-0.3188103743 0 0.2094833483)
(-0.2606519202 0 0.1783844442)
(-0.3615950979 0 0.2457358828)
(-0.2253072887 0 0.1598113673)
(-0.1876550573 0 0.136388782)
(-0.2173303384 0 -0.4245568879)
(-0.5245725082 0 -1.57730824)
(-0.514492607 0 -0.6982166998)
(-0.01531197132 0 0.04204829268)
(-0.01770944837 0 0.04572576829)
(2.518019063 0 -0.7932662009)
(0.2072467479 0 0.08890018983)
(-0.07538489588 0 -0.01633111838)
(-0.06232836296 0 0.1282138174)
(-0.07289947305 0 0.148796263)
(361.4765914 0 418.7502426)
(361.41544 0 418.7717806)
(361.3615425 0 418.7259245)
(-14.83268574 0 1.262765179)
(-0.06272411601 0 0.1363229561)
(-0.07256698589 0 0.1623854732)
(-0.07661301068 0 0.1645118123)
(-0.0784118835 0 0.1753025174)
(-31.01402274 0 57.3706356)
(355.4644919 0 413.0636123)
(361.1564624 0 418.3303849)
(-0.06346789404 0 0.1398373303)
(-0.07047760562 0 0.1599772978)
(-0.07676877024 0 0.1707742096)
(-30.96201159 0 57.27434607)
(-30.96215733 0 57.41914779)
(-0.05198520631 0 0.1236454868)
(-31.14456831 0 57.35544672)
(-31.12467204 0 57.34549425)
(-31.05012336 0 57.24284669)
(-0.02305278953 0 0.06658910906)
(-0.01985650122 0 0.06266006445)
(-0.03815327806 0 0.09581572396)
(-31.21762515 0 57.50419309)
(-31.21204968 0 57.49387637)
(-31.21011422 0 57.48769553)
(-31.16772748 0 57.41287579)
(-0.04386986551 0 0.1324886849)
(-0.02055282151 0 0.07341275661)
(-0.01014576288 0 0.0442625749)
(-0.01591812997 0 0.06989246301)
(-31.30905256 0 57.67362213)
(-31.26626357 0 57.59436167)
(0.01472726438 0 0.05720926144)
(-31.38208071 0 57.80874703)
(-31.37792514 0 57.80099691)
(-31.348061 0 57.74574764)
(0.01789907746 0 0.05929554995)
(0.01568693159 0 0.05324151592)
(-31.47933634 0 57.98903972)
(-31.47883326 0 57.98779244)
(-31.43256276 0 57.90221361)
(7.717478608 0 8.952571263)
(3.415866457 0 3.963186317)
(0.1424011614 0 0.2075112324)
(-31.57542898 0 58.1672346)
(-31.57501318 0 58.16578496)
(-31.52679649 0 58.07639721)
(53.61542027 0 62.21548378)
(36.79323088 0 42.69474093)
(14.29994391 0 16.59091402)
(-31.67201571 0 58.34933663)
(-31.66625981 0 58.34255145)
(-31.62227094 0 58.25475317)
(132.2539638 0 153.5328049)
(110.2812571 0 128.0216579)
(70.35789154 0 81.65830611)
(-31.75467932 0 58.53489365)
(-31.70260792 0 58.49467566)
(-31.69958708 0 58.42609846)
(206.0222307 0 239.3114145)
(187.8723871 0 218.2150636)
(150.8757084 0 175.1909294)
(-3.480448438 0 4.278017917)
(-31.59794293 0 58.4977127)
(257.6732721 0 299.5583882)
(218.793536 0 254.2185746)
(-2.929160682 0 4.531561403)
(-3.624569234 0 4.357648227)
(293.8427586 0 342.0268295)
(-2.940811716 0 4.566439346)
(0.7071688504 0 0.00412636063)
(-0.4977541828 0 0.3921671861)
(-2.841390412 0 4.470754073)
(323.1802694 0 377.6628612)
(320.0214108 0 373.7281409)
(310.4439938 0 361.7033531)
(0.2089611661 0 -0.1007756354)
(-0.07700037333 0 -0.1146508449)
(-0.530078748 0 0.4606339611)
(100.7562521 0 245.530849)
(105.8649576 0 248.5986186)
(169.9768574 0 287.6574173)
(-0.03020345822 0 0.05373879731)
(-0.111419076 0 0.01530637806)
(68.46333045 0 224.0080864)
(-0.2656365093 0 -0.6361498306)
(-1.150491843 0 1.276301659)
(-1.097977036 0 1.211533055)
(54.0867751 0 213.9323307)
(55.67847302 0 214.9673674)
(59.04214346 0 217.2707082)
(-1.158157146 0 1.32494927)
(0.4612570666 0 0.06881184335)
(-0.7518635084 0 0.7432834351)
(-1.021307631 0 1.200244023)
(44.78218675 0 207.2926423)
(44.7724268 0 207.1104523)
(49.03305486 0 210.4678694)
(-0.8067172283 0 0.849850832)
(-0.8048321347 0 0.8057127604)
(40.57993579 0 200.0505889)
(43.68200967 0 205.7828914)
(-0.3642190245 0 -0.8580281448)
(0.2107338801 0 -0.5381867778)
(13.81725108 0 75.72724019)
(33.1523884 0 173.1013608)
(0.8474045842 0 0.4846263733)
(-1.524290163 0 1.473596712)
(0.09603691811 0 -0.03466163353)
(-0.2340246189 0 0.004938253203)
(-1.347799389 0 1.309390383)
(0.9978423174 0 4.446360423)
(0.8456539134 0 4.139736611)
(0.848818322 0 4.751990261)
(0.6034849351 0 3.140388602)
(1.363708505 0 7.745473693)
(-0.239346563 0 0.02431158441)
(0.005360751479 0 0.5112787844)
(0.459098475 0 1.805188215)
(-0.05114539367 0 0.5100822628)
(0.9057919404 0 3.354662876)
(0.6171508091 0 2.388187697)
(0.4353350037 0 1.842445319)
(-0.7278822941 0 0.7595111741)
(-155.0791198 0 105.6479834)
(-154.8972574 0 105.5002637)
(-154.87521 0 105.392908)
(-154.6309014 0 105.4552154)
(-154.3936906 0 105.5212581)
(-154.4168435 0 105.4081255)
(1.508350609 0 3.922834298)
(1.513104812 0 4.116872386)
(1.60104958 0 4.903388858)
(1.239696268 0 3.555264861)
(0.8858730363 0 2.586963222)
(1.039380989 0 3.330847355)
(0.6340950717 0 2.106274934)
(5.040064942 0 9.316353559)
(-9.014641038 0 -3.779194518)
(-10.0746029 0 -4.211873317)
(-10.08446602 0 -4.192610516)
(-9.332569309 0 -3.838432056)
(-9.019717775 0 -4.03899125)
(-8.997586835 0 -4.061250076)
(-8.833578095 0 -4.187011003)
(-8.747690787 0 -4.340029946)
(-8.782123802 0 -4.40071328)
(-8.813063488 0 -4.474658838)
(-8.945049699 0 -4.561586428)
(-8.937770143 0 -4.535808333)
(-9.031258373 0 -4.618929988)
(-9.0997003 0 -4.666469506)
(-9.089342085 0 -4.642505748)
(-9.149881249 0 -4.654248641)
(-3.018312687 0 1.100564207)
(1.710146449 0 4.050433461)
(-0.08021210907 0 -0.01390871607)
(-0.07764317517 0 -0.01477378858)
(-0.0835293952 0 -0.01598563661)
(-0.07281003123 0 -0.01562829765)
(-0.06062372455 0 -0.01199641891)
(-0.06269077534 0 -0.01248665348)
(-0.03908811461 0 0.002102352813)
(-0.03438741784 0 -0.00414963218)
(-0.03739998975 0 -0.004940855817)
(-0.03443252397 0 0.0001009520778)
(-0.04005864007 0 0.004756004446)
(-0.3044998155 0 -0.03649742283)
(-0.06149282557 0 0.04140389553)
(0.2481429753 0 0.01863350041)
(-0.5748667884 0 0.04124967007)
(-0.02883238114 0 -0.02356340798)
(-0.03139084832 0 0.01750949338)
(-0.3587627695 0 0.04553892167)
(-0.03271340871 0 0.02550526997)
(-0.03809570427 0 0.03121103556)
(-0.04869450588 0 0.02737717597)
(-0.04326792767 0 0.03687392975)
(-0.04918368563 0 0.04323679871)
(-0.04473312357 0 0.0384606608)
(-0.4881908987 0 -0.1647058571)
(-0.4048348348 0 -0.1334734474)
(-0.4771666469 0 -0.1560342188)
(-0.2867894353 0 -0.09053893246)
(-0.06846590249 0 -0.008380187514)
(-0.07315647794 0 -0.01208031982)
(-0.06978256779 0 -0.01925361321)
(-0.06869839852 0 -0.01100138308)
(-0.07538682013 0 -0.0119134838)
(-0.06727650225 0 -0.01109367108)
(-0.06539260965 0 -0.01180109512)
(-0.07092917023 0 -0.01320987558)
(-0.0636066601 0 -0.01233843731)
(-0.05635429591 0 -0.01197081154)
(-0.05814861825 0 -0.01207479686)
(-0.05490392084 0 0.005724607139)
(-0.05377783334 0 -0.004720471831)
(-0.03810298833 0 -0.003975752524)
(-0.04401347621 0 0.002127151316)
(-0.03197015108 0 0.002713251094)
(-0.03602564974 0 0.00162771143)
(-0.02974780379 0 0.007884546883)
(0.07773119055 0 0.01491997836)
(0.1914242162 0 0.01823674941)
(-0.02853102463 0 0.02066793023)
(-0.0385726543 0 0.03097217959)