/*--------------------------------*- C++ -*----------------------------------*\
| =========                 |                                                 |
| \\      /  F ield         | OpenFOAM: The Open Source CFD Toolbox           |
|  \\    /   O peration     | Version:  2.1.x                                 |
|   \\  /    A nd           | Web:      www.OpenFOAM.org                      |
|    \\/     M anipulation  |                                                 |
\*---------------------------------------------------------------------------*/
FoamFile
{
    version     2.0;
    format      ascii;
    class       surfaceScalarField;
    location    "2.1";
    object      phi;
}
// * * * * * * * * * * * * * * * * * * * * * * * * * * * * * * * * * * * * * //

dimensions      [1 1 -1 0 0 0 0];

internalField   nonuniform List<scalar> 
5536
(
1.049935545e-09
-5.142010627e-09
-2.650536054e-10
3.46086363e-10
-1.40819693e-09
-3.066418731e-10
1.1026773e-10
-8.173528868e-10
7.370895594e-12
-5.413100373e-11
-1.58689061e-10
2.250706777e-11
-2.262176377e-11
-1.356012206e-10
-6.118787063e-11
-2.124809324e-11
1.603064904e-11
-3.970548523e-11
-1.234066021e-11
4.474338535e-11
2.124164577e-11
-4.544230542e-11
-6.419533686e-11
3.135269918e-09
2.696646558e-10
-2.511623987e-09
-2.468302018e-10
3.383159344e-09
1.478959359e-10
-2.104671156e-09
-2.839127995e-10
1.216420235e-09
2.432729314e-10
-1.00367037e-09
-2.022805832e-10
6.162449022e-10
7.710194365e-11
-4.614938877e-10
-1.130094997e-11
1.169360705e-10
-1.96484343e-11
-1.362529297e-10
1.277133379e-11
8.561126127e-11
-1.051527867e-11
-9.173393942e-11
1.080990808e-11
1.12037713e-10
-1.345420875e-11
-9.263995492e-11
1.729946915e-11
1.129406974e-10
-8.553442419e-11
7.237826657e-12
-2.095483183e-11
-2.194682814e-11
-8.801384267e-11
3.254021372e-11
-8.458486366e-11
-3.58132818e-11
7.20220658e-11
2.085166352e-11
-3.59930405e-11
-1.991823795e-11
3.443864942e-11
1.546523864e-11
-2.080967709e-11
-1.355008631e-11
3.571875664e-11
1.509234033e-11
-2.871235496e-11
-1.924840784e-11
4.445617952e-11
2.433007512e-11
-4.106495967e-11
-5.533650544e-11
1.906825896e-09
1.436069871e-10
-1.379658631e-09
-9.97776364e-11
1.240958574e-09
5.659157802e-11
-7.495554566e-10
-1.912024301e-11
8.606792622e-10
-2.106826443e-11
-8.892493858e-10
-7.788830357e-11
4.163023127e-10
5.462593006e-11
-4.904601511e-10
-9.389351028e-12
2.793958751e-10
-2.74199895e-11
-6.107781441e-10
4.492867176e-11
1.41410575e-10
-3.708423124e-11
-2.83899997e-10
2.115378354e-11
7.810125708e-11
-1.244314229e-11
-7.330820231e-11
1.386654487e-11
7.786829365e-11
-1.915030869e-11
-7.030275278e-11
2.310707163e-11
8.284457371e-11
-2.554029767e-11
-7.79506932e-11
2.84777958e-11
1.582881731e-10
-4.155646109e-11
-1.468828164e-10
7.32745999e-11
-3.553724288e-10
2.248148007e-10
-1.07197565e-10
2.261461236e-11
-3.201413113e-11
-1.3317783e-11
4.87782018e-11
1.983205707e-11
-2.717051163e-11
-1.434824092e-11
1.858802737e-11
8.714469428e-12
-7.073048357e-12
-5.727103101e-12
1.001312411e-11
4.69173179e-12
-3.653210965e-12
-5.410920773e-12
1.930701593e-11
8.416473112e-12
-1.089672522e-11
-1.466784652e-11
3.653737053e-11
1.627083395e-11
-3.31858357e-11
-3.065030374e-11
9.465864013e-10
6.656017171e-11
-6.046873334e-10
-3.956057929e-11
4.629501722e-10
2.049902555e-11
-2.701999482e-10
6.842737837e-12
9.689952325e-10
-5.501452561e-11
-8.736714864e-10
-2.0730985e-11
5.900567988e-10
9.867168235e-12
-5.93840992e-10
1.169297292e-10
1.059929782e-09
-2.755105958e-10
-1.388705287e-09
3.512208167e-10
5.874324108e-10
-3.039409727e-10
-1.027630469e-09
1.488932521e-10
9.040815756e-11
-4.776906159e-11
-1.508061904e-10
2.046914533e-11
6.30357961e-11
-1.877286163e-11
-5.701821068e-11
2.121871345e-11
7.285775185e-11
-2.261715086e-11
-6.793520776e-11
2.663311219e-11
1.382434262e-10
-4.143768204e-11
-1.303724575e-10
7.128251403e-11
3.123360462e-10
-1.195297257e-10
-2.794230476e-10
1.875996019e-10
7.09336781e-10
-4.840849492e-10
3.609637119e-10
-2.762754111e-10
-5.008643161e-10
-7.489263292e-10
3.227140845e-11
1.842238283e-11
-1.300594395e-11
-1.244858157e-11
1.626018815e-11
8.397354573e-12
-6.861388609e-12
-5.840231333e-12
1.20689404e-11
4.385865834e-12
-3.655021938e-12
-2.410286079e-12
1.803895602e-12
8.339286137e-13
-3.878823694e-13
-5.111363245e-13
1.958614491e-12
9.726155971e-13
-4.831771689e-12
-2.735917478e-12
1.293965024e-11
5.939214472e-12
-4.131247226e-11
-6.269442391e-12
2.912630539e-11
2.301491865e-12
-2.200294911e-11
-1.662088892e-11
3.469580924e-10
2.589718311e-11
-1.677675548e-10
-1.233561794e-11
1.366279323e-10
6.452753765e-12
-5.548054732e-11
1.916982876e-12
6.38148374e-10
-1.276001574e-11
-4.046287361e-10
-6.599600919e-12
5.153118642e-10
-2.570990162e-12
-4.25586816e-10
1.523489133e-10
1.46510457e-09
-3.809339137e-10
-1.344241005e-09
5.911799919e-10
1.393240378e-09
-6.928673222e-10
-1.515530618e-09
5.696191577e-10
2.691680932e-10
-2.711174421e-10
-4.162269284e-10
7.884970924e-11
5.294544185e-11
-2.662346194e-11
-4.993972575e-11
1.839710865e-11
6.352339061e-11
-1.851936263e-11
-5.983781377e-11
2.646140512e-11
1.231040807e-10
-4.395302584e-11
-1.164263309e-10
7.112713419e-11
2.534041458e-10
-1.120520785e-10
-2.362762647e-10
1.638831229e-10
4.002021814e-10
-2.220827511e-10
-3.363461619e-10
2.831491157e-10
5.242581369e-10
-3.42312109e-10
-3.944228471e-10
4.013670475e-10
-5.184217688e-10
-4.843841797e-10
1.874612086e-13
5.710388572e-13
1.451720268e-12
-1.998400037e-12
3.574013169e-12
3.367162236e-12
-3.71652681e-14
-2.282880258e-12
1.921485407e-12
1.278820866e-12
-2.542127165e-13
-4.663122777e-13
4.943248151e-13
2.381206251e-13
-6.306442066e-15
-9.451802038e-14
2.332937074e-13
8.028603651e-14
-1.035701013e-13
-9.68876936e-13
1.169613263e-11
6.31135271e-12
-1.563978683e-11
-2.126594572e-11
9.87388815e-11
4.876694069e-11
-1.337576038e-10
-7.736675866e-11
1.841150975e-11
-2.948651131e-12
-1.677120677e-11
-1.188419247e-11
7.190319514e-11
7.192996873e-12
-6.448022842e-11
-1.695879736e-12
1.925175055e-11
1.09826692e-12
-9.240440343e-12
3.714642988e-13
2.418434527e-10
-2.75722842e-12
-1.644499172e-10
-1.157244025e-11
3.433188203e-10
-1.561308131e-12
-2.656726073e-10
1.165270849e-10
1.122065335e-09
-3.009336324e-10
-8.648200277e-10
5.047552579e-10
1.405807584e-09
-6.661323035e-10
-1.155396566e-09
6.792662524e-10
5.117986565e-10
-4.628696746e-10
-4.966376171e-10
1.825016947e-10
4.674429466e-11
-4.560782309e-11
-4.405179915e-11
1.666314459e-11
5.642797317e-11
-1.903388057e-11
-5.1814494e-11
3.032821487e-11
1.115303487e-10
-4.664046875e-11
-1.124660638e-10
7.098708316e-11
2.306519197e-10
-1.155584529e-10
-2.370594621e-10
1.562223133e-10
2.841549763e-10
-1.888643877e-10
-2.386602041e-10
2.127424485e-10
2.944638681e-10
-2.29354424e-10
-2.150089565e-10
2.424896928e-10
3.119481745e-10
-2.579482993e-10
-2.037944001e-10
2.840518349e-10
-2.559486378e-10
-3.499832752e-10
-2.046113421e-11
1.738833332e-11
1.339950225e-12
-2.156118427e-13
-3.603861636e-12
3.666267694e-12
8.846572932e-14
-2.395096658e-13
-2.706838994e-14
2.790645855e-13
-3.520815493e-15
5.886209822e-18
3.357867739e-17
1.034808606e-16
-1.448182288e-17
6.758921919e-18
6.321397227e-18
-1.91676882e-18
-2.261876719e-18
6.945379487e-19
3.22066369e-19
-1.713105954e-18
8.637197464e-19
8.89408923e-12
-3.569873297e-13
3.527848568e-12
-1.777376857e-11
3.982258923e-11
3.965789964e-11
1.677089712e-11
-5.512279568e-11
1.757732756e-11
2.539816482e-12
2.296804349e-12
-1.045264928e-11
1.147981092e-10
1.716613759e-11
-1.572237733e-10
-1.148020757e-12
8.136744602e-12
3.441416606e-13
-5.96524723e-12
-2.49248591e-12
1.455627825e-10
2.420145148e-11
-1.340704117e-10
-6.370891212e-11
1.916795538e-10
2.228400209e-12
-1.257003752e-10
7.21511143e-11
6.132814973e-10
-1.831612978e-10
-3.932993206e-10
3.045320818e-10
8.549790318e-10
-4.131533593e-10
-5.697552552e-10
4.558574467e-10
3.901610736e-10
-3.395522636e-10
-2.508731914e-10
1.571319918e-10
3.828122909e-11
-4.743856594e-11
-2.897894051e-11
1.685233206e-11
4.812540424e-11
-1.894973911e-11
-4.452710431e-11
3.113060997e-11
1.334998734e-10
-4.871066476e-11
-2.782873853e-10
8.618343284e-11
2.524589782e-10
-1.465667923e-10
-3.241953608e-10
1.579809441e-10
1.940069296e-10
-1.548952286e-10
-1.479949078e-10
1.485572326e-10
1.514841865e-10
-1.413034127e-10
-1.018644826e-10
1.354323799e-10
1.337089349e-10
-1.333887139e-10
-8.72027261e-11
1.374401651e-10
1.562516601e-10
-1.056993733e-10
1.836354628e-10
-1.509280047e-10
1.456293313e-11
-6.965971693e-11
-9.421729386e-07
-8.787199402e-07
8.415065321e-07
9.807389817e-07
-2.730030659e-07
-7.999154978e-07
4.979493642e-07
5.758984886e-07
-7.927846922e-08
-3.870374552e-07
2.183048662e-07
2.484463916e-07
-2.274647711e-08
-1.5389925e-07
8.450982805e-08
9.231269438e-08
-6.07550331e-09
-5.354949002e-08
2.981539267e-08
2.987753976e-08
-1.268309983e-09
-1.588198891e-08
9.247159255e-09
7.929691641e-09
-1.449846847e-10
-3.647407743e-09
2.290962406e-09
1.511719701e-09
-1.593472359e-10
-5.161360543e-10
6.123257151e-10
1.70899343e-10
-5.206529635e-09
-4.420598169e-09
8.850932478e-09
5.469873986e-09
-6.581842981e-10
-3.301976456e-09
1.515141798e-09
6.578832486e-10
2.836320298e-13
1.940115859e-14
7.2175248e-14
-4.334322985e-13
8.276286125e-11
7.696970217e-12
5.424841434e-11
-1.21058909e-10
7.170485121e-11
1.215684274e-13
-3.50457908e-11
3.196707798e-11
2.195438263e-10
-7.74712209e-11
-9.725504107e-11
1.22834177e-10
3.361627556e-10
-1.628161376e-10
-1.638178306e-10
1.867596261e-10
1.288961411e-10
-1.332150097e-10
-4.611031086e-11
5.5025294e-11
2.000732564e-11
-1.868763734e-11
-1.509929235e-11
1.224148983e-11
3.676307776e-11
-2.163741188e-11
-2.425188472e-11
6.923089302e-11
9.80454813e-10
-5.030053038e-10
-2.194377782e-09
1.432760525e-09
9.959312437e-10
-1.881780964e-09
-3.589936672e-09
1.154172086e-09
1.307939836e-10
-3.53194028e-10
-5.316134604e-10
1.068549564e-10
6.646353446e-11
-7.45270908e-11
-4.83722446e-11
6.939299861e-11
5.767417964e-11
-6.833619246e-11
-4.11563704e-11
7.099353381e-11
7.190454353e-11
-8.002777845e-11
-5.387185674e-11
9.98102421e-11
1.413444389e-10
-1.149765415e-10
2.458194634e-10
-1.397280363e-10
3.279488706e-12
-2.381412402e-10
-4.667470008e-12
2.396382166e-10
-5.752394442e-07
-1.877863507e-07
3.505398242e-07
4.131320603e-07
-5.704357083e-07
-5.628119437e-07
5.238831131e-07
6.104093806e-07
-3.513190563e-07
-5.774693004e-07
4.313765899e-07
4.983071932e-07
-1.757094692e-07
-4.021332926e-07
2.703363381e-07
3.080807942e-07
-7.726553468e-08
-2.261246538e-07
1.438610846e-07
1.598430557e-07
-3.028519292e-08
-1.09091607e-07
6.764074189e-08
7.189282558e-08
-1.029094957e-08
-4.566195861e-08
2.818606127e-08
2.784160017e-08
-3.412609695e-09
-1.61980404e-08
1.154539049e-08
8.192412756e-09
-9.852969375e-09
-7.572113412e-09
1.191223437e-08
5.677379257e-09
-1.515763372e-09
-2.995106716e-09
2.262411028e-09
1.241830384e-09
-6.531772233e-11
-4.123465667e-10
2.07462922e-10
1.249737576e-10
-5.397405437e-11
-3.906407948e-11
7.005279154e-11
9.706752327e-12
9.708950986e-12
-7.129075645e-12
5.294661997e-13
5.816174849e-12
2.644720621e-11
-1.120777673e-11
-2.494109023e-12
1.906956564e-11
4.544350126e-11
-2.490273329e-11
-4.016903248e-12
2.641184572e-11
9.432450355e-12
-2.18854181e-11
6.087789414e-12
1.229311244e-11
1.533170882e-11
-8.567823443e-12
-1.784188323e-11
2.157614748e-11
1.594460323e-11
-3.829445375e-11
-1.376248226e-11
8.548022428e-11
2.685007501e-09
-1.122837758e-09
-2.379624431e-09
3.754140027e-09
6.284455556e-09
-7.173931134e-09
-6.215223681e-09
9.041102331e-09
2.615455664e-09
-7.637519835e-09
-4.533378749e-09
3.586482545e-09
7.135055488e-11
-6.580984519e-10
-2.267538993e-10
9.553146645e-11
3.437360221e-11
-5.520757336e-11
-3.276999002e-11
5.291959025e-11
4.472910708e-11
-5.89213554e-11
-3.988911414e-11
7.779620712e-11
1.031701509e-10
-1.173006171e-10
-9.343408991e-11
1.929007184e-10
-2.630159807e-10
-4.151621706e-10
-1.42140713e-10
3.493291241e-10
-4.068559185e-10
4.780938623e-12
-9.297603023e-12
4.144529918e-10
-1.996420267e-07
-4.031922237e-08
1.080774205e-07
1.321088968e-07
-4.210873885e-07
-2.518232844e-07
3.090238184e-07
3.645365677e-07
-4.472522576e-07
-4.441993663e-07
4.120539765e-07
4.802779562e-07
-3.431534497e-07
-4.752256614e-07
3.801828248e-07
4.390166334e-07
-2.166790804e-07
-3.837481613e-07
2.807274084e-07
3.203115601e-07
-1.191260828e-07
-2.569160853e-07
1.775980384e-07
1.988390239e-07
-5.819071084e-08
-1.48861336e-07
9.935349009e-08
1.079302655e-07
-2.69544959e-08
-7.577279892e-08
5.120376313e-08
5.173088233e-08
-1.705269768e-08
-3.595447518e-08
2.809824468e-08
2.496661285e-08
-5.204145223e-09
-1.612345886e-08
1.143024625e-08
9.440804587e-09
-9.737398926e-10
-5.053649412e-09
3.307010544e-09
2.49462415e-09
-1.679200057e-10
-1.131210951e-09
7.566122674e-10
4.844804275e-10
-2.823107535e-11
-1.90783719e-10
1.437902372e-10
6.902920017e-11
-3.664505066e-12
-2.846960645e-11
2.22229281e-11
1.334036772e-11
1.624931951e-12
-9.569861586e-12
5.973872526e-12
7.143334057e-12
1.154832546e-12
-3.614682069e-12
-4.629074944e-14
4.278707458e-12
3.050777474e-12
-6.228448051e-12
-1.909918428e-13
7.30103748e-12
2.308458481e-11
-6.548036454e-12
-4.934545619e-11
1.003995954e-10
1.596946316e-09
-7.452100199e-10
-6.754259229e-10
2.27574745e-09
4.097038559e-09
-4.336574045e-09
-1.551675244e-09
6.065267761e-09
3.758257275e-09
-6.602001969e-09
-1.575465241e-09
5.381858222e-09
4.069805029e-10
-2.605742918e-09
-2.42652129e-10
5.669700149e-10
3.044481683e-11
-1.096844884e-10
-2.305940128e-11
6.536751474e-11
3.579394694e-11
-6.823913463e-11
-3.155601385e-11
9.373808432e-11
8.527060155e-11
-1.505615759e-10
-8.57130321e-11
2.542516256e-10
1.635924009e-10
-2.559361469e-10
8.474031564e-10
-4.293784273e-10
2.513341686e-10
-5.984741087e-10
6.040835493e-10
-5.081568388e-10
1.456396082e-11
-2.745837548e-11
5.15509509e-10
-5.584436027e-08
-8.481493045e-09
2.738601089e-08
3.700553529e-08
-2.117310342e-07
-9.147633517e-08
1.371286717e-07
1.663854555e-07
-3.476576294e-07
-2.485864549e-07
2.736169947e-07
3.232294977e-07
-3.801212839e-07
-3.78712618e-07
3.505574375e-07
4.090454294e-07
-3.245183172e-07
-4.137089499e-07
3.427946072e-07
3.961846897e-07
-2.335834134e-07
-3.622114112e-07
2.783255691e-07
3.180829679e-07
-1.475105417e-07
-2.694993602e-07
1.964460756e-07
2.210039868e-07
-8.440291887e-08
-1.758131329e-07
1.243174156e-07
1.362135884e-07
-4.685409486e-08
-1.033775815e-07
7.349056005e-08
7.689253049e-08
-2.228269229e-08
-5.56175173e-08
3.896684742e-08
3.875407663e-08
-8.423435252e-09
-2.586230371e-08
1.756350592e-08
1.648042412e-08
-2.46822507e-09
-1.000963876e-08
6.511283947e-09
5.697470711e-09
-6.346579762e-10
-3.05623641e-09
1.699393588e-09
1.79609003e-09
-2.068699988e-10
-1.281759331e-09
6.927747607e-10
1.011882453e-09
-2.37663812e-11
-8.6858827e-10
5.752979734e-10
8.504541419e-10
-3.36355099e-12
-9.492731918e-10
9.438715364e-10
1.03577826e-09
-4.104423886e-13
-6.206512967e-10
2.63452432e-10
1.381127495e-10
6.573923684e-12
-3.238929192e-11
-9.255351712e-13
1.76312303e-11
8.064916362e-11
-9.137330198e-11
2.897838947e-11
1.78648933e-10
6.136378182e-11
-1.383227963e-10
8.95751181e-13
5.906851401e-11
4.085112453e-11
-2.765109264e-11
-2.858960275e-14
3.39153768e-11
3.917288706e-11
-6.000536066e-11
4.207425317e-12
8.93186718e-11
1.326775343e-11
-1.002730128e-10
-2.466869854e-12
1.07416112e-10
3.088602669e-11
-1.399952744e-10
-3.746737621e-11
2.229189761e-10
1.045581034e-10
-3.836597914e-10
-1.21192392e-10
6.568056538e-10
3.112294658e-10
-2.873520445e-10
1.571161569e-09
-1.079052208e-09
-2.130056251e-10
-2.242626419e-09
3.137323445e-10
1.650794919e-09
-3.800072689e-12
-9.515125853e-10
9.927562653e-12
7.898412757e-10
-1.280297295e-08
-2.030340908e-09
5.541755022e-09
9.291453916e-09
-8.443060093e-08
-2.862103219e-08
4.944702591e-08
6.372268509e-08
-2.032506395e-07
-1.138684788e-07
1.434882638e-07
1.73960993e-07
-3.025845522e-07
-2.362194142e-07
2.469190718e-07
2.924396766e-07
-3.363734664e-07
-3.359706017e-07
3.102519396e-07
3.627811516e-07
-3.059774603e-07
-3.716808131e-07
3.144152568e-07
3.639373977e-07
-2.396112864e-07
-3.424671823e-07
2.716531651e-07
3.110251885e-07
-1.668501908e-07
-2.735545895e-07
2.071245612e-07
2.337484326e-07
-1.065753411e-07
-1.946386783e-07
1.433065418e-07
1.582115553e-07
-6.191414808e-08
-1.255106262e-07
9.045632879e-08
9.70126517e-08
-3.172271935e-08
-7.289925e-08
5.133751929e-08
5.314649216e-08
-1.395488067e-08
-3.752371932e-08
2.570820514e-08
2.550305924e-08
-4.593179933e-09
-1.643595092e-08
1.041791987e-08
1.003862324e-08
-1.785459397e-09
-6.264805146e-09
4.192190426e-09
4.658717767e-09
-1.803725135e-09
-4.491278436e-09
4.079794964e-09
5.295701767e-09
-3.022713016e-09
-6.87638178e-09
6.772994942e-09
8.727711124e-09
-2.032444548e-09
-8.954497408e-09
5.298771477e-09
5.166536018e-09
-2.94180221e-11
-1.090557555e-09
1.786866245e-10
1.654598862e-10
-1.461134635e-11
-1.058178767e-10
2.337482015e-11
8.766689544e-11
-4.311714678e-12
-5.919682139e-11
7.562281234e-12
4.445604562e-11
-4.5447162e-12
-4.925152589e-11
1.026361125e-11
6.758522528e-11
-9.846516402e-12
-9.410274019e-11
1.782571213e-11
1.276759434e-10
-6.283028795e-12
-1.639636677e-10
1.482190251e-11
2.023711655e-10
3.631448549e-11
-2.485049668e-10
-2.803582665e-11
3.01942809e-10
9.088248247e-11
-3.743215494e-10
-3.925007607e-11
5.088887258e-10
1.79445171e-10
-7.790693956e-10
-4.196449488e-11
1.149096908e-09
3.531098823e-10
-9.802158648e-12
-1.417729722e-09
-7.982890959e-10
-7.11218928e-10
8.341009837e-10
6.393688522e-10
-4.521987608e-11
-5.478817185e-10
9.067032443e-11
4.919200504e-10
-2.257528835e-09
-6.446242189e-10
8.24397682e-10
2.073737566e-09
-2.746554273e-08
-7.586543456e-09
1.436256263e-08
2.072912925e-08
-9.661156108e-08
-4.425912619e-08
6.20831758e-08
7.894356152e-08
-1.917680034e-07
-1.230812471e-07
1.423547304e-07
1.728295032e-07
-2.712738863e-07
-2.231038285e-07
2.262204352e-07
2.686715246e-07
-3.049439033e-07
-3.051285072e-07
2.811828274e-07
3.295158991e-07
-2.893638954e-07
-3.405607492e-07
2.919932684e-07
3.385732805e-07
-2.405639241e-07
-3.250927209e-07
2.637264899e-07
3.025077511e-07
-1.800431544e-07
-2.735935141e-07
2.130232375e-07
2.410671975e-07
-1.228223005e-07
-2.072357614e-07
1.564023163e-07
1.739065098e-07
-7.605692704e-08
-1.424501458e-07
1.04688576e-07
1.138557487e-07
-4.227618906e-08
-8.872587657e-08
6.356402117e-08
6.728632033e-08
-2.004976298e-08
-4.941872385e-08
3.403230731e-08
3.49884374e-08
-8.901282553e-09
-2.425008527e-08
1.689398896e-08
1.769193667e-08
-7.923088779e-09
-1.52751362e-08
1.380078747e-08
1.629308358e-08
-1.224333901e-08
-1.95868558e-08
1.868255859e-08
2.277013849e-08
-9.147961916e-09
-2.151691674e-08
1.240886485e-08
1.301102048e-08
-4.652480395e-10
-3.676154075e-09
8.802017858e-10
6.881576719e-10
-8.964274551e-11
-3.192843245e-10
2.62269266e-10
2.110056922e-10
-1.495572655e-11
-1.23136837e-10
4.055817866e-11
7.74204614e-11
-1.619533648e-11
-6.849712492e-11
2.303714267e-11
8.368400271e-11
-2.613585264e-11
-1.138925912e-10
3.660797881e-11
1.635370659e-10
-3.402315567e-11
-2.246717661e-10
7.137406936e-11
2.561143063e-10
-1.261727554e-11
-2.344247701e-10
5.796438869e-11
1.91806206e-10
-3.313436729e-12
-1.548133237e-10
3.360378894e-11
1.280097843e-10
-1.353573434e-11
-1.138722852e-10
2.105333939e-11
1.175621622e-10
-7.603650974e-11
1.002119842e-10
-1.44159309e-10
-2.38818952e-09
1.897560311e-09
5.883355805e-09
-4.882817446e-09
-9.392063217e-10
7.820182952e-10
3.901660395e-09
-1.732735402e-10
-3.166185313e-09
-1.483232675e-10
2.455545701e-09
-2.906996731e-10
-1.571428071e-09
1.006363477e-10
1.421874539e-09
-7.004492478e-09
-2.367509829e-09
3.260078225e-09
6.086072943e-09
-3.803201083e-08
-1.484385582e-08
2.21924285e-08
3.07377698e-08
-1.01234015e-07
-5.496438689e-08
6.903855869e-08
8.733285768e-08
-1.806937577e-07
-1.261620087e-07
1.386310202e-07
1.685525736e-07
-2.478446106e-07
-2.109107634e-07
2.096645246e-07
2.495666e-07
-2.808913174e-07
-2.813410933e-07
2.588627781e-07
3.039410713e-07
-2.748068209e-07
-3.161568407e-07
2.73684054e-07
3.178739978e-07
-2.389858261e-07
-3.099177967e-07
2.556636649e-07
2.9378518e-07
-1.882264067e-07
-2.713317503e-07
2.154531445e-07
2.445206997e-07
-1.353331136e-07
-2.152471343e-07
1.656277653e-07
1.851823906e-07
-8.879847256e-08
-1.557332444e-07
1.165827035e-07
1.279828221e-07
-5.24271476e-08
-1.02662609e-07
7.47329749e-08
8.030375192e-08
-2.88335328e-08
-6.156730646e-08
4.486142869e-08
4.74547661e-08
-2.197988933e-08
-3.886326733e-08
3.259874857e-08
3.55597763e-08
-2.499709897e-08
-3.542232813e-08
3.088263155e-08
3.433898037e-08
-1.467071294e-08
-2.805724919e-08
1.677298678e-08
1.688371857e-08
-1.672878923e-09
-7.068122173e-09
3.185834414e-09
2.567179083e-09
-5.340326993e-10
-1.233722397e-09
1.033631553e-09
8.181441285e-10
-1.572446737e-10
-5.694185304e-10
4.525001113e-10
3.309757002e-10
-3.743378167e-11
-1.63245877e-10
9.546374808e-11
9.914143927e-11
-4.934360852e-11
-1.006490998e-10
6.703609799e-11
1.424442188e-10
-1.04122258e-10
-1.969128978e-10
1.098801425e-10
2.08590938e-10
-9.009287695e-11
-2.031992204e-10
9.445772964e-11
1.941276711e-10
-5.814849899e-11
-1.846512017e-10
7.102169798e-11
1.775730639e-10
-3.377384684e-11
-1.773105106e-10
5.005319456e-11
1.762201849e-10
-3.737667306e-11
4.721297323e-11
1.885683172e-10
-1.811118013e-10
-2.708044831e-09
2.562014618e-09
3.756420955e-09
-3.56325211e-09
-1.944539632e-09
1.783833748e-09
3.218466153e-09
-2.881848203e-10
-2.847985706e-09
5.008018482e-10
2.831597126e-09
8.419602985e-11
-2.211937684e-09
2.60291796e-10
1.537555312e-09
-1.558062777e-09
-1.478094903e-09
7.97259015e-10
2.155339262e-09
-1.235863275e-08
-4.598705336e-09
6.568865532e-09
1.038480176e-08
-4.514585088e-08
-2.114001516e-08
2.825699145e-08
3.809986307e-08
-1.023259844e-07
-6.17371567e-08
7.269094442e-08
9.155295805e-08
-1.707158457e-07
-1.260781369e-07
1.340373436e-07
1.630711275e-07
-2.29386817e-07
-1.998509715e-07
1.959947656e-07
2.336836444e-07
-2.616439534e-07
-2.621402981e-07
2.409349604e-07
2.8337696e-07
-2.620568002e-07
-2.962908833e-07
2.583501817e-07
3.005535215e-07
-2.35752565e-07
-2.965293091e-07
2.476687788e-07
2.851230133e-07
-1.931409075e-07
-2.67609815e-07
2.156720396e-07
2.454675612e-07
-1.450638917e-07
-2.202216168e-07
1.721645787e-07
1.933481749e-07
-9.990854462e-08
-1.6613968e-07
1.264816077e-07
1.398077223e-07
-6.458107289e-08
-1.155267442e-07
8.716293416e-08
9.456546934e-08
-4.580560842e-08
-7.802948529e-08
6.174268642e-08
6.608514828e-08
-3.72739742e-08
-5.716528524e-08
4.562179383e-08
4.832185126e-08
-1.99756485e-08
-3.745608821e-08
2.525742679e-08
2.553656852e-08
-5.743780293e-09
-1.552490925e-08
9.728029179e-09
9.011818539e-09
-2.057913816e-09
-5.37190263e-09
3.978264423e-09
3.393789696e-09
-9.56532975e-10
-2.255791559e-09
1.863382443e-09
1.522145122e-09
-2.9342643e-10
-9.769878172e-10
7.349239673e-10
5.517684735e-10
-1.039468074e-10
-2.815482319e-10
2.153285561e-10
1.655794245e-10
-8.961392983e-11
-1.288326112e-10
8.173406428e-11
1.311442197e-10
-8.728133639e-11
-1.408711553e-10
7.83367426e-11
1.487260839e-10
-7.609224902e-11
-1.562785501e-10
7.790043423e-11
1.6712095e-10
-6.779187853e-11
-1.841228634e-10
8.455084998e-11
2.038124112e-10
-6.790554442e-11
1.006654166e-10
2.627742951e-10
-2.279767277e-10
-2.354306667e-09
2.634513957e-09
4.144398018e-10
-5.317531238e-10
-1.278706663e-09
1.817015219e-09
8.580736837e-10
8.926194168e-11
-1.351244442e-09
-1.571982514e-10
1.936935073e-09
-2.272924383e-10
-1.664053038e-09
-1.250137032e-11
6.236521646e-10
-3.25649672e-10
-2.99992834e-10
1.525307383e-10
3.928424237e-10
-3.247496578e-09
-9.959680623e-10
1.483305016e-09
2.746692165e-09
-1.685125637e-08
-6.685654787e-09
9.516943347e-09
1.404312326e-08
-4.965579188e-08
-2.594785657e-08
3.255256756e-08
4.313949607e-08
-1.015711774e-07
-6.575329338e-08
7.429055377e-08
9.322038192e-08
-1.617863758e-07
-1.242962942e-07
1.291803579e-07
1.57206343e-07
-2.142695102e-07
-1.898698726e-07
1.843958039e-07
2.201603095e-07
-2.457340261e-07
-2.461517209e-07
2.260689191e-07
2.663154061e-07
-2.506844755e-07
-2.796416478e-07
2.451727446e-07
2.856787104e-07
-2.315742515e-07
-2.845089545e-07
2.398944153e-07
2.766695023e-07
-1.958849768e-07
-2.630509392e-07
2.145431729e-07
2.447701514e-07
-1.527345155e-07
-2.230883464e-07
1.768707497e-07
1.993264085e-07
-1.114775025e-07
-1.748850225e-07
1.36116034e-07
1.511885247e-07
-8.03927034e-08
-1.306273066e-07
1.012577809e-07
1.110576207e-07
-5.694768904e-08
-9.263127438e-08
7.24663089e-08
7.587751977e-08
-3.322299389e-08
-6.032222256e-08
4.453824302e-08
4.591483107e-08
-1.556247731e-08
-3.348222632e-08
2.367580807e-08
2.371358469e-08
-7.189875659e-09
-1.656206923e-08
1.209391479e-08
1.151528981e-08
-3.479763554e-09
-7.999523834e-09
6.163230141e-09
5.544584457e-09
-1.540110194e-09
-3.797516859e-09
2.944566847e-09
2.518059454e-09
-5.145697447e-10
-1.575198237e-09
1.152186279e-09
9.216858806e-10
-1.436703213e-10
-5.16283496e-10
3.547144746e-10
3.005527799e-10
-8.012115042e-11
-1.986391159e-10
1.324925267e-10
1.595249557e-10
-8.373834527e-11
-1.622668842e-10
1.040285467e-10
1.929497651e-10
-1.07110208e-10
-2.44155668e-10
1.440193559e-10
3.144960909e-10
-1.50969691e-10
2.284840741e-10
5.4320047e-10
-4.089972655e-10
-1.073622345e-09
-2.258291762e-10
-2.338160794e-10
1.291288173e-10
-1.732622133e-09
1.267523772e-09
4.626199498e-10
-9.07317319e-10
-9.695610184e-10
1.473916568e-09
1.023239955e-09
7.188770425e-11
1.115303207e-11
-4.444811649e-11
-3.61926615e-11
-3.812788949e-11
-3.708207032e-11
-7.070126734e-11
1.51802147e-10
-6.147914673e-10
-3.238106164e-10
1.164374777e-10
7.964315018e-10
-5.038093787e-09
-2.125954828e-09
2.260292471e-09
4.894590909e-09
-2.040548591e-08
-9.960038923e-09
1.214260805e-08
1.825074763e-08
-5.241225862e-08
-3.057414956e-08
3.568333026e-08
4.739575214e-08
-9.984108775e-08
-6.870098055e-08
7.478419148e-08
9.394384022e-08
-1.537822694e-07
-1.220829509e-07
1.244715332e-07
1.516893655e-07
-2.015519079e-07
-1.810996658e-07
1.744490223e-07
2.086031373e-07
-2.322335555e-07
-2.326229466e-07
2.134797257e-07
2.518524188e-07
-2.404248527e-07
-2.653562156e-07
2.336528628e-07
2.726256521e-07
-2.269431821e-07
-2.735742625e-07
2.324856775e-07
2.684915406e-07
-1.972651502e-07
-2.580245819e-07
2.126538191e-07
2.430703622e-07
-1.597582981e-07
-2.257191829e-07
1.811396398e-07
2.042205138e-07
-1.83784636e-07
-2.440377924e-07
2.379875017e-07
2.731682792e-07
-1.293829802e-07
-2.499665998e-07
1.692755848e-07
1.925763684e-07
-6.59333289e-08
-1.35205181e-07
8.663387619e-08
9.425666938e-08
-3.480597733e-08
-6.821449999e-08
4.837706443e-08
5.096062907e-08
-1.906612843e-08
-3.84618736e-08
2.835632351e-08
2.891365745e-08
-1.028675834e-08
-2.15331394e-08
1.62014895e-08
1.586122186e-08
-5.249961533e-09
-1.153060578e-08
8.788108195e-09
8.229850467e-09
-2.327080441e-09
-5.717541399e-09
4.290475991e-09
3.824541098e-09
-8.266410652e-10
-2.436075329e-09
1.761693652e-09
1.479681386e-09
-3.006382548e-10
-8.895023968e-10
6.546381599e-10
5.647851733e-10
-1.648488557e-10
-3.934451039e-10
3.212595214e-10
3.128265616e-10
-1.885835631e-10
-3.072164723e-10
2.416243233e-10
3.724089295e-10
-3.043995974e-10
2.8797569e-10
6.87837096e-10
-4.988604602e-10
9.685463508e-10
9.285845631e-09
-5.642717714e-09
-7.238811896e-10
1.661359025e-09
4.228895763e-09
-5.345562913e-10
-2.990490678e-09
4.189518508e-10
3.376479273e-10
1.293775126e-11
1.347272781e-11
-7.914022294e-12
5.807517105e-12
1.537695853e-10
-6.73908749e-11
-3.497695451e-10
2.743716606e-10
1.02657369e-09
-7.489097845e-10
-1.876728386e-09
1.625527056e-09
1.142868162e-10
-3.187770923e-09
-4.664586291e-09
7.801072845e-09
-6.369253214e-09
-1.519993956e-08
-3.135682137e-09
2.366183899e-08
-2.34322329e-08
-3.012584475e-08
1.513676139e-08
3.78377427e-08
-5.476404493e-08
-4.863271634e-08
4.011288699e-08
6.308788984e-08
-9.831075672e-08
-8.106014714e-08
7.71861901e-08
1.022109115e-07
-1.470507185e-07
-1.259015015e-07
1.220360303e-07
1.511211238e-07
-1.908983153e-07
-1.765668832e-07
1.669999052e-07
2.008102916e-07
-2.206751667e-07
-2.224697559e-07
2.032319399e-07
2.403470392e-07
-2.311805293e-07
-2.535300712e-07
2.237327122e-07
2.614425499e-07
-2.22192421e-07
-2.638619409e-07
2.255909977e-07
2.609260789e-07
-1.984559701e-07
-2.535733354e-07
2.108406728e-07
2.40974317e-07
-2.447350737e-07
-2.539137051e-07
2.313329192e-07
2.604835986e-07
-1.801801606e-07
-2.400566836e-07
1.803932857e-07
2.023416326e-07
-1.037427901e-07
-1.639612485e-07
1.19963234e-07
1.326060007e-07
-6.396390059e-08
-1.081417389e-07
8.133847922e-08
8.834917877e-08
-4.00597285e-08
-7.169619952e-08
5.408790556e-08
5.751997628e-08
-2.418835978e-08
-4.555365375e-08
3.440685956e-08
3.560888226e-08
-1.388821111e-08
-2.746266418e-08
2.083737215e-08
2.086018311e-08
-7.333175266e-09
-1.555520351e-08
1.175800429e-08
1.133842595e-08
-3.39366702e-09
-8.036342508e-09
5.983514393e-09
5.504050493e-09
-1.36536252e-09
-3.626489471e-09
2.672689563e-09
2.317536995e-09
-6.220022462e-10
-1.490533827e-09
1.173295546e-09
1.016042387e-09
-3.656709618e-10
-7.357098783e-10
6.319507233e-10
5.235694252e-10
-2.200686429e-10
2.434119413e-10
2.201663522e-10
-3.354603123e-10
-1.604972549e-09
-1.613352085e-09
1.229591835e-09
1.604227571e-09
4.057089731e-12
-1.802493385e-10
-4.985587086e-16
-8.869447633e-13
3.093710907e-11
-1.082974104e-13
-1.04141151e-10
7.613822764e-11
7.454111371e-10
-3.864378904e-10
-1.454126011e-09
1.100999755e-09
3.05548858e-09
-2.297812567e-09
-4.670493666e-09
3.926006812e-09
6.416882733e-09
-5.825840494e-09
-8.366116581e-09
7.811200737e-09
9.781936585e-09
-9.726310012e-09
-1.118879766e-08
1.15779888e-08
4.182882927e-09
-1.538541749e-08
-1.361625152e-08
2.741264338e-08
-3.110015652e-08
-5.335783987e-08
5.205081982e-09
7.884558788e-08
-6.299618169e-08
-9.185934692e-08
5.202854958e-08
1.018306786e-07
-1.020163649e-07
-1.130640557e-07
8.760111886e-08
1.26956478e-07
-1.447003391e-07
-1.435039293e-07
1.260387646e-07
1.620365025e-07
-1.837226879e-07
-1.815390216e-07
1.645883989e-07
2.008205008e-07
-2.115693805e-07
-2.186569743e-07
1.966296183e-07
2.339138843e-07
-2.232109657e-07
-2.456505949e-07
2.160617027e-07
2.532033628e-07
-2.17905995e-07
-2.56291829e-07
2.197922473e-07
2.546404356e-07
-2.205138553e-07
-2.535884922e-07