/*--------------------------------*- C++ -*----------------------------------*\
| =========                 |                                                 |
| \\      /  F ield         | OpenFOAM: The Open Source CFD Toolbox           |
|  \\    /   O peration     | Version:  2.1.x                                 |
|   \\  /    A nd           | Web:      www.OpenFOAM.org                      |
|    \\/     M anipulation  |                                                 |
\*---------------------------------------------------------------------------*/
FoamFile
{
    version     2.0;
    format      ascii;
    class       volVectorField;
    location    "2.1";
    object      Uf;
}
// * * * * * * * * * * * * * * * * * * * * * * * * * * * * * * * * * * * * * //

dimensions      [0 1 -1 0 0 0 0];

internalField   nonuniform List<vector> 
2828
(
(-1.648795266 0 -0.03731392724)
(-0.2453351422 0 -0.09431325901)
(-0.2492172433 0 -0.01767397604)
(-0.202827827 0 0.02647070758)
(-0.2571201861 0 0.02903817813)
(-0.2155154382 0 -0.09289585349)
(-0.2293032822 0 -0.09345134234)
(-0.1302768913 0 -0.06488657381)
(-0.9651054411 0 -0.08578670589)
(-1.374605128 0 -0.04308410226)
(-0.2409115187 0 -0.07764190512)
(-0.2389948095 0 -0.02114881177)
(-0.2118907107 0 0.02208725005)
(-0.2698836313 0 0.03953697127)
(-0.235690221 0 0.03140510612)
(-0.2429569655 0 0.05515952992)
(-0.2352255527 0 0.075687261)
(-0.1798187894 0 -0.08610017262)
(-0.2066178307 0 -0.09586566085)
(-0.2375335583 0 -0.1052095662)
(-0.2698254933 0 -0.1103868511)
(-0.1100890619 0 -0.0618599737)
(-0.8605485181 0 -0.0717286204)
(-1.162298681 0 -0.04988140148)
(-0.2441907681 0 -0.04134140451)
(-0.2385104586 0 -0.01695346647)
(-0.2731841746 0 0.04068133263)
(-0.2851577013 0 0.0497589033)
(-0.2380772334 0 0.0370155629)
(-0.2506761575 0 0.06578660259)
(-0.2301510846 0 0.08202881558)
(-0.1843331896 0 0.0823602088)
(-0.2124234198 0 0.1076166401)
(-0.1033581769 0 -0.04038460907)
(-0.1762297033 0 -0.08465954853)
(-0.2434315319 0 -0.1166425105)
(-0.2957575244 0 -0.1340031888)
(-0.3220525928 0 -0.1305920025)
(-0.1055293199 0 -0.0462148489)
(-0.7404171298 0 -0.06314482993)
(-1.06403076 0 -0.03754455227)
(-0.3838338088 0 -0.01205088578)
(-0.3085968035 0 0.0355444817)
(-0.3614961713 0 0.1116835683)
(-0.317076185 0 0.097483413)
(-0.2504852232 0 0.05291667081)
(-0.2581896419 0 0.07798951412)
(-0.212973642 0 0.08346096841)
(-0.1648800801 0 0.08216177468)
(-0.1892557504 0 0.109672711)
(-0.2190663822 0 0.1400927642)
(-0.2348532597 0 0.1639891282)
(-0.08060531404 0 -0.05220082011)
(-0.102760012 0 -0.05089572972)
(-0.1665854854 0 -0.07428256281)
(-0.3198123227 0 -0.1574217514)
(-0.4183977019 0 -0.1964813513)
(-0.4560090461 0 -0.1783049106)
(-0.1252388239 0 -0.04331952159)
(-0.6802655171 0 -0.06433360628)
(-1.158581321 0 -0.03614192422)
(-0.4665858166 0 0.01007047054)
(-0.340345669 0 0.07883561898)
(-0.3956237219 0 0.1511766159)
(-0.369686012 0 0.1629076719)
(-0.2691751145 0 0.08459986952)
(-0.2355941596 0 0.07953904206)
(-0.1677317898 0 0.07581408465)
(-0.1455502956 0 0.08203483237)
(-0.1659337183 0 0.1042559216)
(-0.1909707412 0 0.1321445906)
(-0.2116300792 0 0.1616187375)
(-0.2234094898 0 0.1844029503)
(-0.1415827447 0 -0.1549023491)
(-0.08527991228 0 -0.07337903169)
(-0.1086074611 0 -0.07096342295)
(-0.1785181324 0 -0.08010150872)
(-0.3926940426 0 -0.186621095)
(-0.6406962709 0 -0.3220569033)
(-0.67842417 0 -0.3009528176)
(-0.2063606372 0 -0.07627388552)
(-0.8003661722 0 -0.09210947347)
(-1.496524427 0 -0.04806931854)
(-0.4937639814 0 0.02239407748)
(-0.3267964002 0 0.09356279445)
(-0.3761421051 0 0.1634146013)
(-0.366457682 0 0.187896529)
(-0.2987761722 0 0.1269883765)
(-0.1879909786 0 0.0683750317)
(-0.1325389552 0 0.0712958157)
(-0.1285881976 0 0.08197390667)
(-0.1491971961 0 0.09755336248)
(-0.1633364806 0 0.1207838952)
(-0.1763269294 0 0.1452160698)
(-0.1906761695 0 0.1745331208)
(-0.1967603991 0 0.1991365267)
(-0.5532322767 0 0.5952786597)
(2.963981364 0 0.04590527632)
(0.5637394798 0 -0.03703004532)
(0.05112681171 0 -0.1775721815)
(-0.2375738249 0 -0.2560017449)
(-0.5137882503 0 -0.1647727976)
(-0.3940244483 0 -0.3787526549)
(-0.4592357299 0 -0.1511317207)
(-0.3870429619 0 -0.1737327519)
(-0.3115816697 0 -0.07997946606)
(-1.003892094 0 -0.06001372382)
(-0.2054541256 0 -0.06868532223)
(-0.299498839 0 0.1006456671)
(-0.3249879146 0 0.1591371674)
(-0.3208276828 0 0.1852533326)
(-0.2949728732 0 0.1392955687)
(-0.1780900157 0 0.0832812541)
(-0.1174896407 0 0.0759760653)
(-0.1184887125 0 0.08058769088)
(-0.1432892274 0 0.08465144763)
(-0.142829631 0 0.1066938749)
(-0.1480228535 0 0.1306552252)
(-0.1561711757 0 0.1591233207)
(-0.1643267607 0 0.1899160214)
(4.122067479 0 -5.96000469)
(10.59012038 0 12.26925005)
(10.45385204 0 12.13294176)
(10.10676755 0 11.7381926)
(9.266636543 0 10.76490906)
(7.581207832 0 8.807428199)
(5.101990843 0 5.926997009)
(2.564980289 0 2.978871746)
(0.8937135619 0 0.6625780855)
(0.5902437668 0 0.3906461261)
(0.485536866 0 0.3654060635)
(-0.634195805 0 -0.1386677036)
(-0.192705871 0 -0.08418532631)
(-0.2797977737 0 0.1216268523)
(-0.267171186 0 0.1513788728)
(-0.2537951832 0 0.1649134913)
(-0.3252823425 0 0.14173585)
(-0.130803358 0 0.09560103704)
(-0.09530289491 0 0.08338798022)
(-0.3671740683 0 0.4130168329)
(-0.311759718 0 0.3334764572)
(-0.1405095426 0 0.1098291496)
(-0.1379729755 0 0.1351545137)
(-0.1416446194 0 0.1710020885)
(-0.1376779467 0 0.1953838595)
(-0.1365718221 0 0.2143706872)
(-0.1175192183 0 0.5013696619)
(10.40370278 0 12.03315956)
(10.36369546 0 12.0056331)
(10.19155521 0 11.81949426)
(9.823397612 0 11.40024213)
(9.12259117 0 10.5906743)
(7.944290276 0 9.224233434)
(6.255612478 0 7.263871676)
(4.194936605 0 4.865445053)
(1.227750649 0 1.091922851)
(0.7666145496 0 0.6696371582)
(0.4200541695 0 0.4605047635)
(0.3183326097 0 0.2260519244)
(-0.2896288585 0 0.1715212091)
(-0.2503269965 0 0.1800694902)
(-0.2054802073 0 0.1571588021)
(0.08818754947 0 0.1179889837)
(-0.04881230897 0 0.09758689208)
(-0.06320469447 0 0.09442503599)
(-0.6366661068 0 0.809641119)
(-0.6280518265 0 0.8468473177)
(-0.4935340843 0 0.6781620185)
(-0.1567527083 0 0.1978343764)
(-0.1304164008 0 0.2086966163)
(-0.1082775717 0 0.2006449883)
(-0.1095477808 0 0.2107767643)
(-0.1251009591 0 0.2401639879)
(-0.05822330601 0 0.05134901599)
(-0.0958260165 0 0.1892217631)
(9.736119015 0 11.25720778)
(10.05194359 0 11.63338037)
(10.04413011 0 11.63533846)
(9.869490148 0 11.44226815)
(9.506990193 0 11.02841181)
(8.88647464 0 10.31237732)
(7.933722062 0 9.208680451)
(6.593160723 0 7.653351285)
(4.396061946 0 5.022991102)
(2.828030498 0 3.165932404)
(1.759833913 0 1.977739878)
(0.8343425094 0 0.9591959576)
(0.3503904681 0 0.3591577522)
(0.1940292924 0 0.2161433591)
(0.04479738541 0 0.2449755527)
(-0.09013924252 0 0.1186037734)
(-0.09676495556 0 0.1142575898)
(-0.1476150416 0 0.1402080641)
(-0.5885384464 0 0.8339323414)
(-0.6273336508 0 0.9570706223)
(-0.5562917581 0 0.8819596118)
(-0.2572086669 0 0.4370696361)
(-0.08051643787 0 0.2116824982)
(-0.06603845992 0 0.1978233242)
(-0.07046225682 0 0.2280768403)
(-0.0918992918 0 0.2707628534)
(-0.04034109119 0 0.1014163722)
(-0.08742064798 0 0.1285061002)
(7.957279015 0 9.201577675)
(9.306484751 0 10.76659379)
(9.645467035 0 11.16588611)
(9.67269123 0 11.20505368)
(9.513967403 0 11.02809307)
(9.17364357 0 10.63890322)
(8.61723484 0 9.997154645)
(7.797801391 0 9.048601206)
(6.582217031 0 7.627807904)
(5.147549179 0 5.941740227)
(3.788884763 0 4.359971607)
(2.524156914 0 2.904810579)
(1.569272282 0 2.005565272)
(1.647043186 0 2.435064685)
(1.736643672 0 2.762844277)
(1.448083905 0 2.252240771)
(0.7034183752 0 0.5660333246)
(-0.1106093574 0 0.6729758391)
(0.1030842465 0 0.4845917199)
(-0.02045168248 0 0.2875995916)
(-0.02410520405 0 0.2240423734)
(-0.003209839893 0 0.1863023691)
(-0.01464268299 0 0.2034154895)
(-0.04085135766 0 0.2792834972)
(-0.06433709252 0 0.3583466568)
(-0.08709867917 0 0.4308313082)
(0.007464378987 0 0.1476235018)
(0.003834127063 0 0.1140216148)
(4.80410983 0 5.561609264)
(7.833840135 0 9.062357816)
(8.857825958 0 10.25065618)
(9.215686727 0 10.66996997)
(9.27619433 0 10.74575116)
(9.142899982 0 10.59674342)
(8.833752557 0 10.24286649)
(8.333479296 0 9.666022029)
(7.596048675 0 8.810954826)
(6.610765571 0 7.66258548)
(5.472293773 0 6.335629582)
(4.267580768 0 4.936735211)
(3.11213333 0 3.620120658)
(2.327787517 0 2.895393942)
(2.275521797 0 3.143639319)
(2.290643404 0 3.310079807)
(1.711605088 0 2.386941717)
(0.3401221993 0 0.4571955981)
(0.06382014135 0 0.3655821407)
(0.04498052502 0 0.3112491309)
(0.03517145551 0 0.2695749323)
(0.03163169075 0 0.2582373714)
(0.01502015899 0 0.2745195475)
(-0.04333924472 0 0.3181994295)
(-0.07523901236 0 0.3803327109)
(-0.06583617928 0 0.4651772803)
(-0.05962645743 0 0.5190062882)
(0.07854288398 0 0.04879946538)
(0.02771662171 0 0.08271704797)
(1.800610962 0 2.09374189)
(5.587256254 0 6.464277665)
(7.537331706 0 8.721442276)
(8.413693355 0 9.73851491)
(8.782502431 0 10.16940704)
(8.872544395 0 10.2781518)
(8.768534119 0 10.16203099)
(8.494367318 0 9.848061921)
(8.042477049 0 9.326713337)
(7.395994495 0 8.577157012)
(6.56831129 0 7.615201637)
(5.599300073 0 6.489280859)
(4.559655785 0 5.284813784)
(3.580394147 0 4.204501397)
(3.107791001 0 3.892983635)
(2.889809912 0 3.819969121)
(2.16445677 0 2.842478508)
(0.7038188037 0 0.764508228)
(0.3430304302 0 0.3961332218)
(0.08041134419 0 0.2589827515)
(0.05589009469 0 0.2404262166)
(0.04945178525 0 0.2424522023)
(0.06038989877 0 0.2516843197)
(0.09877299711 0 0.314807078)
(0.1113092311 0 0.4696047334)
(0.08276475272 0 0.4806119399)
(0.1458847684 0 0.7841476184)
(0.07373018121 0 0.1781563277)
(0.03470441702 0 0.1367864739)
(0.01462476322 0 0.1508482605)
(0.1755707968 0 0.2859712271)
(2.943796625 0 3.41021364)
(5.659566946 0 6.548794664)
(7.188109129 0 8.31879345)
(7.981280582 0 9.239199398)
(8.357139091 0 9.677509477)
(8.473050106 0 9.815358446)
(8.398994856 0 9.733193645)
(8.159943927 0 9.459327447)
(7.757757482 0 8.995162266)
(7.192676224 0 8.340558205)
(6.476274904 0 7.509410272)
(5.639095356 0 6.53758799)
(4.730206361 0 5.49279834)
(3.926023098 0 4.656344533)
(3.317203008 0 4.065588514)
(2.476182464 0 3.021474648)
(1.24549994 0 1.431137546)
(0.664955678 0 0.6943417785)
(0.4142937876 0 0.4496095159)
(0.1265125175 0 0.2194302345)
(0.07526461666 0 0.1965417236)
(0.1003336072 0 0.217067751)
(0.1478696076 0 0.3158634318)
(0.1547987385 0 0.3940467681)
(0.1530125321 0 0.4468661987)
(0.2159022254 0 0.6949364719)
(0.1018826466 0 0.09299265463)
(0.0939409701 0 0.09987209305)
(0.05739968791 0 0.1234504851)
(0.02684712738 0 0.1711119468)
(0.8054267943 0 1.002285492)
(3.446648597 0 3.99483979)
(5.541580997 0 6.413736502)
(6.831371575 0 7.907058775)
(7.566788579 0 8.760215791)
(7.9465736 0 9.202516583)
(8.084823185 0 9.365612538)
(8.03949694 0 9.316140524)
(7.835605436 0 9.082508525)
(7.482315765 0 8.674845558)
(6.98588244 0 8.100280853)
(6.35803373 0 7.372223664)
(5.612342253 0 6.5063339)
(4.781944348 0 5.563543589)
(3.966268157 0 4.657217552)
(3.118437372 0 3.656427016)
(2.147177063 0 2.489422874)
(1.320905195 0 1.495346241)
(0.8412028991 0 0.9084293025)
(0.5090964003 0 0.5578559838)
(0.2026241941 0 0.2572274789)
(0.1980163634 0 0.2983453129)
(0.2088635658 0 0.3788532151)
(0.1874782286 0 0.3890310646)
(0.1751698745 0 0.4030613064)
(0.1789058481 0 0.4547193483)
(0.08704978397 0 0.01336256501)
(0.05289122847 0 0.02352661258)
(-0.002652215003 0 0.0822114952)
(0.04736506008 0 0.1208347738)
(0.3184028279 0 0.3770926675)
(1.685249513 0 1.956113072)
(3.707471278 0 4.292108716)
(5.370758739 0 6.216399682)
(6.48868805 0 7.511126978)
(7.175389056 0 8.307657349)
(7.555462875 0 8.74988653)
(7.712369738 0 8.93411416)
(7.693796072 0 8.91515393)
(7.524254179 0 8.720961209)
(7.216324702 0 8.365809111)
(6.778792088 0 7.859560695)
(6.217984134 0 7.207913441)
(5.249221426 0 6.43268124)
(4.671789316 0 5.549729407)
(3.969901656 0 4.623824612)
(3.13088906 0 3.631121357)
(2.278596878 0 2.631944513)
(1.556471666 0 1.768374574)
(1.041551635 0 1.153154441)
(0.6360701822 0 0.7112606069)
(0.3348742512 0 0.4023858864)
(0.2026113765 0 0.2924137179)
(0.1780576486 0 0.3209735395)
(0.1789857027 0 0.3638486106)
(0.1910139474 0 0.4255085069)
(0.006646091909 0 -0.003799194601)
(0.07417667127 0 0.005412621851)
(0.1235655798 0 0.08139405877)
(-0.06834550007 0 -0.08242995269)
(-0.006544825496 0 0.1120041088)
(0.5829593047 0 0.6955335363)
(2.004999914 0 2.321685485)
(3.728202129 0 4.313861828)
(5.154270011 0 5.965333339)
(6.158258125 0 7.128681206)
(6.806863826 0 7.881123906)
(7.185705676 0 8.32172585)
(7.358198929 0 8.523690284)
(7.364182872 0 8.532843337)
(7.226917562 0 8.375823377)
(6.960109938 0 8.068139008)
(6.572208665 0 7.448283309)
(6.564612979 0 7.662869583)
(5.910954828 0 7.14100538)
(4.928464168 0 5.807967803)
(4.05099397 0 4.706583734)
(3.24247586 0 3.759168827)
(2.463512061 0 2.844556476)
(1.784274765 0 2.035786795)
(1.244359794 0 1.400450604)
(0.7888820204 0 0.8951466509)
(0.4456770197 0 0.5313005684)
(0.2583227821 0 0.337878251)
(0.1731723556 0 0.2865731599)
(0.1710078244 0 0.3359404662)
(-0.01167464172 0 0.2591848929)
(0.03267178711 0 0.1820122445)
(0.03155935704 0 0.1489026842)
(-0.03821259484 0 -0.04876115679)
(-0.238698081 0 0.2645592809)
(-0.4877203779 0 0.5532481546)
(-0.6352304008 0 0.7386126508)
(0.4269593926 0 1.552441136)
(2.690826825 0 3.474000004)
(4.570614187 0 5.366732951)
(5.730853964 0 6.647700072)
(6.426136838 0 7.442593404)
(6.827252334 0 7.906785393)
(7.020365355 0 8.132068746)
(7.050836192 0 8.169339056)
(6.943809192 0 8.047215195)
(6.71289129 0 7.740125804)
(6.662893184 0 7.541012666)
(6.119858579 0 7.075906954)
(5.431370948 0 6.304663033)
(4.765255696 0 5.528414878)
(4.073206323 0 4.72615026)
(3.348660307 0 3.882832152)
(2.634453484 0 3.042752113)
(1.991645302 0 2.281289044)
(1.439399907 0 1.636883754)
(0.9448730979 0 1.083000886)
(0.562771432 0 0.6667027672)
(0.3404545393 0 0.4172354805)
(0.1675427028 0 0.2161039993)
(0.08502138181 0 0.1237593708)
(-0.1146181593 0 -0.1093364131)
(-0.1543684687 0 0.1235798193)
(-0.5200494735 0 0.5817952764)
(-0.7536465925 0 0.8462786493)
(-0.8684685594 0 0.977098543)
(-0.9043139798 0 1.027447257)
(-0.8704078707 0 0.9874279087)
(0.9110406954 0 2.308694864)
(3.045178905 0 4.119724802)
(4.820843563 0 5.783894129)
(5.876147144 0 6.861230972)
(6.424638751 0 7.455584456)
(6.680473962 0 7.742248408)
(6.747984038 0 7.819219584)
(6.673068273 0 7.728951392)
(6.528356167 0 7.523110471)
(6.208471168 0 7.181205635)
(5.783871075 0 6.704531389)
(5.289937136 0 6.13608536)
(4.726555549 0 5.485614699)
(4.104018974 0 4.764316264)
(3.44437928 0 3.99435308)
(2.786485312 0 3.21992812)
(2.175274388 0 2.499192438)
(1.618467656 0 1.852883181)
(1.096246971 0 1.264859882)
(0.69331305 0 0.8168576658)
(0.4600116013 0 0.5465004124)
(0.1837839336 0 0.1368368884)
(0.09205352061 0 -0.2157363057)
(-0.4832274498 0 0.5370911508)
(-0.8538163664 0 0.957574709)
(-0.9961558669 0 1.122149814)
(-1.027892679 0 1.164170247)
(-1.00389023 0 1.135883237)
(-0.9666310135 0 1.062357869)
(-0.9217090458 0 0.9699052735)
(0.4060454959 0 1.916271067)
(2.423200463 0 3.61462387)
(4.116171541 0 5.144708877)
(5.300528332 0 6.28744561)
(5.987216951 0 6.98739276)
(6.329347149 0 7.349819589)
(6.448863198 0 7.477281205)
(6.416971211 0 7.433668769)
(6.256555665 0 7.249881067)
(5.991070493 0 6.945346799)
(5.635862465 0 6.536544155)
(5.201097762 0 6.035838083)
(4.696780787 0 5.45340747)
(4.132789974 0 4.798242375)
(3.526931527 0 4.089484615)
(2.915879809 0 3.370682138)
(2.335740007 0 2.689256397)
(1.779398166 0 2.046573015)
(1.242766406 0 1.443114404)
(0.8615404032 0 1.021856325)
(0.1595890051 0 0.004210078952)
(0.1631363685 0 -0.1997371228)
(-0.9530463583 0 1.065564239)
(-1.156050749 0 1.299968018)
(-1.182828886 0 1.339890408)
(-1.13480588 0 1.292383302)
(-1.055150264 0 1.187249304)
(-0.9938976276 0 1.064991482)
(-0.9650343731 0 0.9739438403)
(-0.9328257183 0 0.9137706532)
(0.2887631297 0 1.792600162)
(2.21720966 0 3.424208528)
(3.247765224 0 4.740378257)
(4.792831573 0 5.843255473)
(5.585325017 0 6.568943833)
(5.990128971 0 6.977529039)
(6.15905958 0 7.150220883)
(6.162846045 0 7.146258276)
(6.041794915 0 7.003876789)
(5.819901918 0 6.74779818)
(5.512443101 0 6.39432484)
(5.128690097 0 5.952443716)
(4.672906259 0 5.425060365)
(4.151830271 0 4.818659533)
(3.589247307 0 4.16026351)
(3.025205965 0 3.497466243)
(2.476823477 0 2.85631667)
(1.929932073 0 2.232142036)
(0.2529575162 0 -0.2845944641)
(-1.345815255 0 1.506941943)
(-1.362305712 0 1.541560054)
(-1.293349509 0 1.478197987)
(-1.173893264 0 1.337264446)
(-1.074395668 0 1.160946379)
(-1.052026607 0 1.054124011)
(-1.031261246 0 0.9960751881)
(-0.96805725 0 0.9269974411)
(-0.877134094 0 0.8454278599)
(0.6632767887 0 1.608872899)
(3.235460829 0 3.775059741)
(3.578968574 0 4.639784901)
(4.550935961 0 5.530727992)
(5.262292753 0 6.215321105)
(5.686486864 0 6.640172632)
(5.891957072 0 6.846993508)
(5.935141996 0 6.883484732)
(5.855285355 0 6.786619469)
(5.67655965 0 6.580159746)
(5.411186602 0 6.275330004)
(5.063394428 0 5.874524379)
(4.64018311 0 5.382429703)
(4.150227022 0 4.814263884)
(3.635572404 0 4.211771049)
(3.121318165 0 3.608509243)
(2.608982601 0 3.016496445)
(0.06738382598 0 -0.4052421103)
(-1.546228202 0 1.744394832)
(-1.463913203 0 1.677782205)
(-1.316021456 0 1.519314301)
(-1.153652447 0 1.25693465)
(-1.156554915 0 1.136159806)
(-1.160615334 0 1.107405898)
(-1.093808585 0 1.041642791)
(-0.9729615996 0 0.9281309165)
(-0.8403840652 0 0.788736352)
(-1.159609621 0 0.8235991345)
(-1.065978669 0 1.250007026)
(0.2658653215 0 2.239804365)
(1.959089913 0 3.523607116)
(3.355889956 0 4.623539821)
(4.49710924 0 5.546044407)
(5.219622663 0 6.176525912)
(5.590120472 0 6.518563395)
(5.722019012 0 6.639270129)
(5.695428213 0 6.599339577)
(5.551834242 0 6.432901851)
(5.314918163 0 5.058311929)
(5.677302713 0 7.508310332)
(4.659413477 0 5.560116245)
(4.138318157 0 4.80134815)
(3.678071396 0 4.258744666)
(-1.598921073 0 1.858061881)
(-1.470673088 0 1.719923819)
(-1.185898235 0 1.314556914)
(-1.291582539 0 1.224163138)
(-1.327713977 0 1.251488813)
(-1.254553568 0 1.193036521)
(-1.110671083 0 1.063784093)
(-0.919844828 0 0.883305005)
(-0.864257226 0 0.7216519646)
(-1.546878952 0 0.9824207626)
(-1.869572659 0 1.16277755)
(-1.954401213 0 1.235605846)
(-1.830719985 0 1.241323092)
(-0.3458526887 0 1.918251528)
(1.448338804 0 3.290814927)
(2.731239092 0 4.302901133)
(3.923379866 0 5.213407526)
(4.810222464 0 5.895139623)
(5.296600772 0 6.266985049)
(5.451620901 0 6.362729572)
(5.384124898 0 6.195376347)
(5.457726405 0 6.187416632)
(4.897018379 0 5.67965486)
(4.518991893 0 5.239338851)
(4.137861823 0 4.793142229)
(-0.0588800972 0 -0.1620504564)
(0.1353494345 0 -0.8377940817)
(-1.464805125 0 1.353489218)
(-1.523841449 0 1.428324856)
(-1.445291947 0 1.372239784)
(-1.283308863 0 1.230699836)
(-1.045729223 0 1.009061129)
(-0.7742744516 0 0.7490255598)
(-1.254731875 0 0.8290502254)
(-1.850830231 0 1.150753601)
(-1.998485739 0 1.247285768)
(-2.006128486 0 1.267072286)
(-1.928517337 0 1.232943289)
(-1.746091523 0 1.246190141)
(-1.383795222 0 1.38087691)
(1.381127322 0 3.207939564)
(2.465420429 0 4.063494915)
(3.414635918 0 4.809507259)
(4.225539064 0 5.433436191)
(4.799619513 0 5.859792671)
(5.092787731 0 6.0485867)
(5.150135808 0 6.02875079)
(5.016159658 0 5.842080111)
(4.778077272 0 5.549012451)
(0.7381878479 0 -1.193166405)
(-1.72330053 0 1.59661016)
(-1.644010282 0 1.559585866)
(-1.481503347 0 1.422145573)
(-1.200202994 0 1.160175207)
(-0.8189827832 0 0.7941158755)
(-0.4707513013 0 0.4566244651)
(-1.76121748 0 1.097322986)
(-2.039697966 0 1.268280448)
(-2.086726578 0 1.310983462)
(-2.042532434 0 1.30254085)
(-1.902505451 0 1.23759322)
(-1.558810282 0 1.251788987)
(-1.246523593 0 1.396386394)
(-0.2160715768 0 2.010055454)
(1.634342627 0 3.360324145)
(2.543722684 0 4.081554785)
(3.292577115 0 4.678881108)
(3.940059381 0 5.182077495)
(4.445373579 0 5.555679772)
(4.7666522 0 5.76578287)
(4.891530111 0 5.800618733)
(-1.787425686 0 1.693553935)
(-1.676859203 0 1.62557067)
(-1.364863007 0 1.325649782)
(-0.7774395663 0 0.7656368933)
(-0.2455922677 0 0.235547477)
(-0.05476617019 0 0.1632885195)
(-2.054839966 0 1.280127858)
(-2.154066381 0 1.344914379)
(-2.138976719 0 1.355607637)
(-2.052442769 0 1.320611528)
(-1.855536983 0 1.217205408)
(-1.371578824 0 1.190769568)
(-0.9611935448 0 1.367004197)
(-0.7977657926 0 1.430028226)
(0.7970430553 0 2.577999901)
(1.978427228 0 3.552292848)
(2.6880993 0 4.14348628)
(3.280548018 0 4.627526597)
(3.799950739 0 5.037244723)
(4.233778992 0 5.359817612)
(0.931726652 0 0.4005330015)
(0.6664016774 0 0.3804444207)
(0.256665944 0 0.2043235854)
(0.0008033963667 0 0.1350553113)
(-2.21224699 0 1.386265659)
(-2.220278835 0 1.394494736)
(-2.163076394 0 1.384466316)
(-2.029236147 0 1.312906187)
(-1.748242425 0 1.13812877)
(-1.225541118 0 0.9221002612)
(-0.7673001855 0 0.7513716786)
(-0.1021664004 0 0.5704229128)
(0.5617494252 0 1.807122858)
(1.595671961 0 3.040125498)
(2.27483316 0 3.70548553)
(2.819854679 0 4.1918562)
(3.286800815 0 4.588241964)
(0.7061255869 0 0.35337042)
(0.5961603112 0 0.3213695715)
(0.1201617606 0 0.0768807949)
(-2.288339571 0 1.451638156)
(-2.254013201 0 1.424283058)
(-2.161792083 0 1.395566321)
(-1.938686571 0 1.256558286)
(-1.440233209 0 0.9325120183)
(-0.7466328585 0 0.4843308731)
(-0.1514364136 0 0.298481208)
(0.2798126951 0 0.6740533004)
(0.4968121393 0 1.045098956)
(1.210071715 0 2.278743031)
(1.889200437 0 3.167635477)
(-2.313114335 0 1.492273634)
(-2.259081539 0 1.438431829)
(-2.110531622 0 1.374055683)
(-1.555126608 0 1.010502899)
(-0.5882777559 0 0.3820733633)
(0.06479980778 0 0.3875098429)
(0.2175826931 0 0.4975159181)
(0.2864451197 0 0.5739670505)
(0.3528862583 0 0.666765765)
(-0.1147348549 0 -0.06572956101)
(-0.1339435739 0 -0.06093742255)
(-0.1989322621 0 -0.05289661148)
(-0.8364424824 0 -0.08473268954)
(-1.493042164 0 -0.09418297577)
(-1.546380166 0 -0.09071045772)
(-1.530700425 0 -0.03965066279)
(-0.2654007265 0 -0.03717426592)
(-0.232444971 0 -0.03524226963)
(-0.2462309137 0 -0.08693220978)
(-0.2563188097 0 -0.04030819693)
(-0.2561234213 0 -0.04410392859)
(-0.2455557005 0 -0.0175465087)
(-0.2055841256 0 0.01475016986)
(-0.2103136037 0 0.02113318276)
(-0.2025348174 0 0.02365594813)
(-0.2506542302 0 0.0170189299)
(-0.2411265498 0 0.0139843319)
(-0.2604726793 0 0.03212267906)
(-0.2516612659 0 0.03078156167)
(-0.2380097396 0 0.03265119727)
(-0.2317171419 0 0.03660421965)
(-0.2398313992 0 0.0504044872)
(-0.2034521432 0 -0.09391103325)
(-0.2103148496 0 -0.09449420377)
(-0.2188977894 0 -0.09528478761)
(-0.2388126091 0 -0.10010234)
(-0.2258482059 0 -0.09343596241)
(-0.251240653 0 -0.1030792357)
(-0.1099740413 0 -0.06834653434)
(-0.1099158646 0 -0.06629746825)
(-0.2467191115 0 0.06020051253)
(-0.2579512757 0 0.077872761)
(-0.2560477202 0 0.07601501519)
(-0.2335790608 0 0.07998422801)
(-0.200347765 0 0.07341138415)
(-0.2056133644 0 0.07337449247)
(-0.1947161781 0 0.07808134254)
(-0.1989585673 0 0.09229592726)
(-0.1441775438 0 -0.06507458008)
(-0.1757723874 0 -0.08387520155)
(-0.2001808444 0 -0.09626458804)
(-0.1949194861 0 -0.09202463423)
(-0.198828241 0 0.1103161927)
(-0.2143803301 0 0.1207804203)
(-0.2193494917 0 0.1207024045)
(-0.2261673109 0 0.1380964346)
(-0.08388836619 0 -0.04757607937)
(-0.08956445776 0 -0.04214665883)
(-0.09278768916 0 -0.04185578084)
(-0.09961419189 0 -0.04502280228)
(-0.1254565379 0 -0.05552937785)
(-0.132499778 0 -0.05792393771)
(-0.2060273193 0 0.1382716759)
(-0.2161011628 0 0.1519661243)
(-0.2326548052 0 0.152991891)
(-0.2259614479 0 0.1621728742)
(-0.2307750595 0 0.174080082)
(-0.08731563432 0 -0.0682747711)
(-0.07789899733 0 -0.06187017578)
(-0.07888077126 0 -0.05560101692)
(-0.2094458655 0 0.1814381066)
(-0.212118684 0 0.1924752533)
(0.5053311493 0 -0.1339235281)
(4.521510783 0 0.562686578)
(0.008551791402 0 -0.3943691849)
(-0.1790442336 0 0.1951555027)
(-0.1813817651 0 0.2072993084)
(10.64719329 0 12.33604758)
(10.60925345 0 12.32088537)
(10.54911682 0 12.2562418)
(2.455067918 0 -0.1946927902)
(-0.1510711542 0 0.1910975817)
(-0.1555053845 0 0.204754367)
(-0.1681044907 0 0.2102812497)
(-0.1545176431 0 0.2160712873)
(-0.2976787572 0 -1.711601458)
(10.54578618 0 12.18643334)
(10.62839134 0 12.28559056)
(-0.1244903896 0 0.2109578804)
(-0.132749612 0 0.2304739545)
(-0.1417371731 0 0.2260295048)
(-0.1018619602 0 0.1080133939)
(-0.09890108127 0 0.1365576411)
(-0.1110141071 0 0.2484711831)
(-0.03338591392 0 0.0441757772)
(-0.07070511056 0 0.0896098831)
(-0.08857727233 0 0.08607285438)
(-0.08057239229 0 0.3394251128)
(-0.09421552077 0 0.3531515288)
(-0.0987140583 0 0.2942140813)
(0.06732407846 0 0.2204575722)
(0.02713877411 0 0.2078165646)
(0.01606712551 0 0.1862091694)
(-0.0635422237 0 0.1022444406)
(-0.08543843897 0 0.4920685106)
(-0.09335169585 0 0.5282472532)
(-0.09551435324 0 0.4372050149)
(-0.09370144248 0 0.5366698926)
(0.06622859397 0 0.1163865043)
(0.04259843483 0 0.1714932)
(0.03802006853 0 0.4932149966)
(0.1149199065 0 0.2313489625)
(0.1035898895 0 0.1978526227)
(0.0997725203 0 0.09079478667)
(0.2088611713 0 0.854937634)
(0.2090494875 0 0.8587846775)
(0.0451953892 0 0.1352927348)
(0.04014307049 0 0.140562706)
(0.04990704542 0 0.1499571844)
(0.1862731675 0 0.5271584641)
(0.1860024103 0 0.5505807672)
(0.2105293023 0 0.6937009696)
(0.04363675554 0 0.02524542625)
(0.04989825288 0 0.0630337456)
(0.08726558663 0 0.0934074703)
(0.1839281613 0 0.432013847)
(0.1892302057 0 0.4647700099)
(0.1809757895 0 0.4825448)
(0.08095259203 0 -0.02698808012)
(0.1040020817 0 -0.00796468159)
(0.09257149645 0 0.01274983398)
(0.190293206 0 0.4026033356)
(0.201342715 0 0.442546878)
(0.2002209863 0 0.4650140787)
(-0.02350734478 0 0.08370572962)
(0.01341626336 0 0.07251579823)
(0.07643940474 0 -0.01819346543)
(0.1451770295 0 0.2424557918)
(0.1411631246 0 0.2567702819)
(0.1794294218 0 0.3675963344)
(0.09530931071 0 0.1909772874)
(0.024082142 0 0.2449116048)
(0.2862313905 0 0.3430525312)
(0.1362710789 0 0.1967504682)
(0.1059633551 0 0.09876047134)
(0.09952082694 0 0.1387036519)
(0.6394636083 0 0.7574662044)
(0.103464425 0 0.1269228818)
(0.2038469398 0 0.1293047326)
(0.1028438906 0 -0.2160140611)
(0.0915051221 0 -0.1529043988)
(1.577653014 0 1.82729205)
(1.317613326 0 1.541305414)
(1.00043351 0 1.177523223)
(0.1144741178 0 -0.1554934854)
(0.1359166782 0 -0.177533764)
(0.1300905333 0 -0.1875926407)
(2.260925088 0 2.614248096)
(2.052414326 0 2.379817081)
(1.686244861 0 1.961534727)
(0.1689868957 0 -0.2078386333)
(0.1467068777 0 -0.1863786361)
(2.943374554 0 3.403812664)
(-0.778725019 0 -0.8596780664)
(-1.627409529 0 1.819649897)
(-1.568017929 0 1.74749577)
(3.912793816 0 4.531703624)
(3.722918387 0 4.310366677)
(3.449141762 0 3.991001856)
(-1.638185205 0 1.867326635)
(0.4522241279 0 0.08603535808)
(0.1298168034 0 -0.2151926569)
(-1.549689437 0 1.807805633)
(4.667999118 0 5.41404112)
(4.4987265 0 5.215236947)
(4.317349457 0 5.002825934)
(0.5622251864 0 -0.9521125881)
(0.03325426718 0 -0.3265829458)
(4.853362678 0 5.655947699)
(4.652808981 0 5.399622838)
(-0.0213880927 0 -1.037435021)
(0.2554848189 0 -0.3002835191)
(4.733305291 0 5.702062664)
(4.895461755 0 5.769513217)
(0.9676505404 0 0.600986583)
(-1.742290341 0 1.683482748)
(0.850688444 0 -0.1883979524)
(1.195619651 0 0.4203648949)
(-1.556775707 0 1.510908375)
(3.535906856 0 4.809469652)
(3.759089904 0 4.987514166)
(4.029708799 0 5.211199737)
(3.977751603 0 5.155711766)
(4.396643888 0 5.474228924)
(1.106261769 0 0.3869220828)
(0.8711948778 0 0.3705262048)
(0.7592601651 0 0.3602791168)
(0.8026463241 0 0.4049632829)
(2.622395736 0 3.982631344)
(2.871406711 0 4.208319184)
(3.070440759 0 4.405793236)
(0.6755197783 0 0.3539555519)
(0.5848187572 0 0.3155593705)
(0.3148154567 0 0.2626935418)
(0.3592855478 0 0.246742539)
(0.034545856 0 -0.03251355821)
(-2.336460234 0 1.455342729)
(-2.30166776 0 1.426654994)
(0.376894567 0 0.7473178831)
(0.6067168414 0 1.169169423)
(0.7998844196 0 1.619594313)
(0.9979934672 0 1.853595907)
(1.369178358 0 2.418229566)
(1.572290984 0 2.769022325)
(2.183026769 0 3.499099706)
(-2.341525239 0 1.481751365)
(-2.285154495 0 1.442846675)
(0.4409979661 0 1.054107738)
(-2.199708571 0 1.431271304)
(0.2523702958 0 0.382336913)
(-0.02923539904 0 0.4016286785)
(-1.91709286 0 1.247320447)
(-0.0307839118 0 0.4211067553)
(-0.006184942139 0 0.4126127027)
(-1.056538615 0 0.6855653682)
(0.263626836 0 0.8018835389)
(0.2030172351 0 0.6340600756)
(-0.2186485158 0 0.2668142611)
(0.1965111143 0 0.552691409)
(0.2095032087 0 0.5197369201)
(0.1502051664 0 0.4541616527)
(0.239954459 0 0.5128141606)
(0.2612904457 0 0.5494689655)
(0.3336782225 0 0.6378294279)
(-0.1204340516 0 -0.06599842511)
(-0.3216933651 0 -0.06534406907)
(-0.3275144497 0 -0.06554502883)
(-0.9186336931 0 -0.07825585189)
(-1.29232502 0 -0.07195217348)
(-1.430936583 0 -0.0813800795)
(-1.248197845 0 -0.04795465296)
(-0.5753141181 0 0.01343590295)
(-0.3748721066 0 -0.02123011522)
(-0.2363177264 0 -0.06060587385)
(-0.2423177751 0 -0.04335493471)
(-0.2517594614 0 -0.04057093139)
(-0.232156475 0 -0.02348561793)
(-0.1967259986 0 -0.00524142946)
(-0.2002806139 0 0.00393183209)
(-0.234324717 0 0.02451392171)
(-0.2808366594 0 0.02853947809)
(-0.2658433166 0 0.02232853925)
(-0.278142535 0 0.0443357572)
(-0.25455083 0 0.03284841431)
(-0.2504552239 0 0.03151248831)
(-0.2353854726 0 0.03300428711)
(-0.2309109459 0 0.0414918328)
(-0.2309076232 0 0.0377021211)
(-0.2221459239 0 -0.1054438857)
(-0.2417280804 0 -0.1118551891)
(-0.2223185294 0 -0.1017714143)
(-0.2606730133 0 -0.116417644)
(-0.2814733985 0 -0.1201868284)
(-0.2566678253 0 -0.108728073)
(-0.2920384091 0 -0.1190729646)
(-0.1100348564 0 -0.05773829865)
(-0.1080848533 0 -0.06470885455)
(-0.1036145629 0 -0.0543305425)
(-0.2723064725 0 -0.05589004992)
(-0.3040836879 0 -0.06298910386)
(-0.7976084949 0 -0.06652843507)
(-1.043538181 0 -0.06126174155)
(-1.155955654 0 -0.0643366131)
(-1.095751364 0 -0.04484831978)
(-0.8979644269 0 0.06667426971)
(-0.7713789584 0 0.04733542663)
(-0.3023607106 0 -0.0253142043)
(-0.2154782762 0 -0.04559471363)
(-0.2285035705 0 -0.04620866094)