/*--------------------------------*- C++ -*----------------------------------*\
| =========                 |                                                 |
| \\      /  F ield         | OpenFOAM: The Open Source CFD Toolbox           |
|  \\    /   O peration     | Version:  2.1.x                                 |
|   \\  /    A nd           | Web:      www.OpenFOAM.org                      |
|    \\/     M anipulation  |                                                 |
\*---------------------------------------------------------------------------*/
FoamFile
{
    version     2.0;
    format      ascii;
    class       volScalarField;
    location    "0.5";
    object      deltaf;
}
// * * * * * * * * * * * * * * * * * * * * * * * * * * * * * * * * * * * * * //

dimensions      [0 1 0 0 0 0 0];

internalField   nonuniform List<scalar> 
2828
(
1.400942654e-05
4.495292047e-05
3.144814712e-05
1.065426196e-05
4.977310843e-05
1.06290606e-05
8.380063764e-06
6.459232567e-06
2.315972801e-06
7.550983194e-06
2.211864659e-05
4.868454002e-05
1.588778367e-05
4.502170123e-05
7.38986042e-05
6.285012122e-05
3.625727098e-05
2.392776381e-05
1.539553309e-05
4.550421062e-06
2.451832523e-06
2.887013578e-06
1.967592834e-06
7.158870447e-06
1.075981493e-05
2.409448986e-05
1.393063104e-05
2.154285442e-05
3.146309949e-05
2.11566668e-05
1.422951199e-05
1.603779783e-05
2.07844182e-05
2.726308659e-05
1.859706064e-05
4.606031811e-06
9.753181752e-07
5.606075847e-07
6.653175926e-07
6.987162725e-06
2.707676799e-05
2.130003672e-05
8.068484323e-06
6.945336295e-06
1.531778926e-05
1.294007418e-05
5.865803514e-06
4.713570321e-06
6.821369138e-06
1.318422315e-05
1.676321153e-05
1.498606046e-05
3.175875458e-05
1.676906249e-05
4.895689107e-06
8.557103739e-07
1.666864268e-07
1.543326215e-07
3.397559519e-07
8.133109755e-06
2.588744406e-05
6.405139217e-05
8.068574192e-06
4.406563068e-06
1.955628697e-05
5.551298374e-06
2.0157546e-06
2.080329094e-06
3.729025877e-06
8.767752086e-06
1.803887796e-05
2.565962034e-05
2.271739558e-05
2.271673748e-05
1.40000678e-05
5.375808958e-06
1.558610845e-06
2.844636371e-07
4.829076693e-08
3.956905518e-08
1.34418611e-07
2.290838132e-06
1.418001851e-05
6.44785458e-05
6.345503045e-06
5.851263684e-06
2.24748484e-05
2.03420818e-06
6.773125551e-07
1.061889957e-06
2.325739842e-06
6.618183987e-06
1.621164871e-05
2.800572969e-05
3.845886129e-05
1.950401999e-05
1.032483635e-05
1.236435642e-05
8.565605299e-06
4.500007909e-06
1.883259063e-06
3.827332436e-07
3.396819631e-08
1.793517396e-08
1.987989791e-08
5.368106172e-07
8.292457852e-06
4.497148737e-05
4.196929028e-06
1.037471878e-05
1.752530324e-05
5.980870942e-07
3.61902419e-07
7.763502237e-07
1.728398487e-06
5.224554337e-06
1.045049977e-05
1.511458169e-05
2.841206799e-05
3.238183012e-05
4.759474813e-06
5.463624494e-06
7.271070267e-06
7.736888115e-06
6.891637862e-06
4.829241312e-06
1.204472634e-06
5.029762367e-08
1.683972761e-08
1.97446083e-08
4.774737159e-07
8.384332101e-06
2.183407968e-05
3.796089257e-06
1.084700254e-05
1.104568993e-05
2.83848599e-07
3.287058858e-07
7.843253238e-07
1.626352126e-06
3.985874604e-06
5.350804414e-06
6.331611089e-06
1.363831984e-05
2.882684241e-05
1.881095072e-05
4.074338606e-06
4.000069859e-06
4.255973746e-06
5.298871747e-06
7.992331607e-06
1.062321987e-05
5.095170421e-06
1.961201534e-07
1.959612637e-08
4.078516699e-08
9.224694412e-07
9.303535521e-06
1.013900752e-05
2.971740217e-06
9.61869659e-06
6.272667736e-06
2.644801521e-07
4.568783439e-07
1.000806015e-06
1.880698564e-06
3.120434285e-06
2.677330891e-06
2.853798444e-06
6.189304063e-06
1.63819645e-05
1.873617354e-05
1.74247132e-05
1.709216571e-06
3.040484686e-06
4.201138554e-06
4.081661066e-06
4.287700601e-06
6.906129322e-06
1.159514595e-05
7.523549975e-06
2.22500034e-06
7.361907696e-06
2.394263886e-07
8.075771419e-07
7.624864587e-06
4.964546983e-06
4.405614654e-06
1.943257753e-05
2.403360712e-06
3.88170466e-07
1.398410078e-06
2.600762195e-06
4.152109766e-06
2.806111361e-06
1.463136948e-06
1.305821231e-06
2.842317312e-06
7.885506749e-06
9.382860215e-06
1.145738118e-05
4.485804667e-07
1.34153457e-06
4.663229776e-06
6.421724736e-06
6.63981768e-06
6.834137786e-06
1.140662667e-05
4.189468716e-05
6.964375364e-05
3.965748236e-05
5.071167514e-06
4.38110287e-07
6.366105976e-06
2.892269125e-06
3.333230723e-05
2.919408187e-05
1.532340796e-06
3.136577017e-07
1.450460312e-06
4.603809036e-06
7.610828563e-06
2.018927073e-06
6.991549111e-07
5.577703513e-07
1.125978925e-06
3.294408133e-06
3.679454943e-06
4.657493289e-06
3.056296091e-06
2.056796323e-06
4.119199367e-06
9.109671994e-06
8.759786173e-06
6.231131529e-06
1.383127714e-05
3.208003578e-05
4.918639674e-05
6.451155144e-05
2.191361174e-06
1.107331405e-06
2.687431287e-06
5.773256869e-06
5.210644517e-05
2.594253474e-05
2.099803178e-06
5.34097742e-07
6.325490722e-07
2.712676949e-06
4.345287734e-06
6.404304511e-07
3.27690725e-07
2.596102848e-07
4.128858891e-07
1.175743085e-06
1.736003746e-06
2.247956193e-06
2.698512321e-06
2.970218655e-07
1.591390839e-07
2.053222513e-07
4.660317237e-07
1.432054806e-06
5.796539453e-06
2.131561017e-05
2.550889463e-05
1.480762245e-05
5.822921801e-06
9.91501829e-07
4.244349323e-07
1.816061306e-07
7.528781881e-06
3.05840454e-05
1.749280092e-05
2.121911365e-06
7.663684321e-07
2.552379077e-07
1.194399552e-06
1.284459565e-06
5.935431801e-07
3.42847392e-07
2.619805859e-07
2.042920057e-07
5.142485834e-07
1.369758199e-06
1.322352924e-06
1.084585974e-06
4.231612292e-09
6.180865581e-09
1.597467825e-08
5.120482351e-08
2.417870142e-07
1.311983898e-06
3.99936316e-06
9.726383768e-06
1.192285843e-05
8.270278689e-06
4.815767739e-06
9.429060403e-07
1.103254916e-08
7.237493774e-08
4.094517435e-06
8.708996112e-06
7.197183343e-06
2.071054806e-06
8.404216766e-07
1.752325859e-07
3.281768939e-07
2.298171217e-07
9.928321687e-08
6.837580717e-08
7.30076063e-08
6.165417671e-08
1.577670898e-07
5.71316302e-07
4.404515153e-07
2.095620147e-07
3.729435388e-09
9.51586516e-09
2.371106832e-08
5.268052021e-08
1.045911445e-07
4.539362388e-07
1.410202324e-06
2.68709567e-06
5.299788455e-06
9.336004195e-06
7.987109514e-06
1.354257369e-06
2.788775584e-09
2.130553157e-08
3.533074973e-06
4.728919185e-06
2.475723551e-06
2.737649461e-06
1.287145201e-06
4.232115356e-07
1.097000622e-07
3.448115247e-08
2.080026088e-08
2.039690795e-08
3.630926701e-08
5.485627751e-08
1.890455835e-07
1.092649659e-06
2.073064067e-06
1.824967175e-06
4.905665034e-08
5.307999728e-08
7.27180937e-08
1.337994098e-07
6.528409227e-07
5.31908265e-06
6.562482494e-06
8.017908924e-06
2.667102592e-05
4.205676148e-05
2.913712736e-05
4.715308879e-06
1.529125688e-07
5.323430543e-07
2.191824972e-05
3.32597314e-05
9.489118435e-07
4.669430188e-07
9.143807949e-07
1.715025477e-06
3.436642868e-06
8.459952678e-06
1.067918329e-05
3.653188664e-07
1.958593903e-08
8.374701091e-09
1.44795448e-07
4.24323631e-07
2.61134196e-07
3.01900449e-06
6.260545525e-07
1.234999903e-06
3.271647547e-06
2.19529405e-05
5.564221543e-05
5.934380565e-05
3.484548445e-05
1.662357841e-05
1.05487333e-05
1.194485174e-05
1.279723329e-05
1.046990697e-05
9.430858854e-06
1.78629443e-05
7.337462767e-06
3.24079316e-05
6.160701331e-06
3.115061436e-06
3.615951527e-06
5.8506019e-06
1.018342227e-05
1.554763332e-05
1.48333103e-05
7.194640684e-06
2.343564756e-06
5.717475115e-07
2.410204707e-07
1.084037179e-06
3.144236182e-06
5.06817969e-06
3.747250124e-05
4.681769403e-05
2.915574612e-05
1.340369669e-05
6.726841053e-06
2.095825724e-06
8.17788902e-07
7.976612386e-07
1.306754145e-06
3.028735973e-06
7.510101326e-06
2.796429447e-05
4.044307229e-05
1.200891904e-05
4.93705279e-06
7.196894497e-06
5.578663972e-06
5.941448595e-06
8.608879639e-06
1.462797196e-05
2.176567237e-05
2.088100864e-05
1.064444155e-05
3.275243325e-06
7.808641627e-07
1.483595714e-07
1.323076831e-07
5.525972642e-07
1.769363715e-06
4.211412335e-06
5.303836743e-05
2.90477414e-05
9.433721205e-06
3.47175788e-06
1.716355895e-06
1.1740533e-06
1.031835812e-06
1.0183414e-06
1.504749643e-06
2.07797664e-06
2.093409184e-05
5.366983164e-05
1.756965434e-06
2.192349568e-05
2.512355199e-05
1.678269393e-05
1.253477966e-05
1.43019014e-05
1.21964193e-05
6.084928967e-06
2.511664148e-06
1.168688351e-06
7.300682313e-07
6.181229687e-07
6.622782651e-07
8.612851137e-07
1.333729975e-06
2.263319028e-06
3.809346147e-06
3.947120786e-05
2.733469561e-05
1.330014904e-05
6.27712753e-06
3.185941724e-06
1.855952745e-06
1.299378408e-06
8.821811697e-07
5.265653049e-07
6.553052438e-07
5.112386099e-06
2.545413536e-05
2.287026869e-06
2.969002023e-05
3.336700608e-05
0.0001070864476
4.331847863e-06
2.867629393e-06
2.830559196e-06
3.316523614e-06
3.519352314e-06
3.385850467e-06
3.220807261e-06
3.181074687e-06
3.288778534e-06
3.535846537e-06
3.941888428e-06
4.612722129e-06
5.536195575e-06
3.289137287e-05
3.222874899e-05
2.593451463e-05
1.656317527e-05
8.700334105e-06
4.087280756e-06
1.811248785e-06
6.74322463e-07
2.632954628e-07
3.835472622e-07
1.00130428e-06
3.840051277e-06
3.390967305e-06
2.070528603e-05
2.607900736e-05
6.564560745e-05
4.662543243e-06
5.386518951e-06
7.499378144e-06
8.392472858e-06
7.806262934e-06
7.075309835e-06
6.721165041e-06
6.578201955e-06
6.593922717e-06
6.753669446e-06
7.064387853e-06
7.690650253e-06
2.429222944e-05
2.298454744e-05
1.922096833e-05
1.194987775e-05
5.727889112e-06
2.238867633e-06
5.773106341e-07
3.228676669e-07
4.04957588e-07
5.135720031e-07
1.337973995e-06
3.116802638e-06
7.92609034e-06
1.045753352e-06
6.385349812e-06
4.83529051e-06
9.20787191e-06
1.228905761e-05
1.236665164e-05
1.106740999e-05
1.123047111e-05
1.204894676e-05
1.120295863e-05
9.635133253e-06
9.056807761e-06
9.469959701e-06
1.110356008e-05
2.308918225e-05
1.548877816e-05
1.131428484e-05
7.572708353e-06
4.255126039e-06
1.841087501e-06
4.698805605e-07
2.971143261e-07
3.199836807e-07
2.599630706e-07
4.915957503e-07
1.45127526e-06
2.212633422e-06
1.2286629e-07
6.76454508e-07
3.483709799e-06
7.866657548e-06
1.066901437e-05
1.068365538e-05
1.066077909e-05
1.340466131e-05
1.789725318e-05
1.823209423e-05
1.332830541e-05
1.055948848e-05
1.096328055e-05
1.521077625e-05
8.479300634e-06
4.649506472e-06
2.688091196e-06
1.257113977e-06
3.72581407e-07
2.255878667e-07
2.256947981e-07
1.755838812e-07
4.160765947e-07
6.33609423e-07
6.749677658e-07
6.768161843e-08
5.211997534e-07
2.058664895e-06
4.387146698e-06
6.135941768e-06
7.048378487e-06
8.967257655e-06
1.449463008e-05
2.366892057e-05
2.580984684e-05
1.466902313e-05
8.874695669e-06
8.638577946e-06
1.181489716e-05
8.116419665e-06
4.457139927e-06
2.312652081e-06
1.015920322e-06
3.808236771e-07
2.504518893e-07
2.865665439e-07
4.226725745e-07
1.073374899e-06
1.113372846e-06
8.831606963e-07
1.580733959e-07
4.895529147e-07
1.595239485e-06
3.072266134e-06
4.464795004e-06
6.145169354e-06
9.749908143e-06
1.829686569e-05
3.074986738e-05
2.968422696e-05
1.155942515e-05
5.88275344e-06
1.047328503e-05
6.210138071e-06
3.368475744e-06
1.787673291e-06
1.088803944e-06
1.01736952e-06
1.326008538e-06
2.005278199e-06
2.737218464e-06
2.466329895e-06
1.981811615e-06
6.667552546e-07
7.395493374e-07
1.877219258e-06
3.590812082e-06
5.824711569e-06
9.188621303e-06
1.536216599e-05
2.68693709e-05
2.280498969e-05
9.368176739e-06
4.17471259e-06
1.081843391e-05
7.036626719e-06
5.11753459e-06
4.440057744e-06
4.817143482e-06
6.065102881e-06
7.54524216e-06
7.194799035e-06
5.835755889e-06
4.498355737e-06
1.430934375e-06
1.403143019e-06
2.94997201e-06
5.548414654e-06
9.222798192e-06
1.388229302e-05
2.15778704e-05
4.071651148e-05
5.848465284e-06
2.275688467e-06
1.524783198e-05
1.314048151e-05
1.372055824e-05
1.623770801e-05
1.914357027e-05
1.696832539e-05
1.249152351e-05
8.35121794e-06
2.123305552e-06
1.83690054e-06
3.073470568e-06
5.210144556e-06
4.019514499e-06
5.754246596e-06
1.978140689e-05
4.516990816e-05
2.908152108e-06
2.564992684e-05
2.531306282e-05
2.353574672e-05
2.450792062e-05
2.158954609e-05
1.440494541e-05
1.14163158e-05
2.624363404e-06
1.777576543e-06
2.120167973e-06
3.144302336e-06
1.766492499e-06
2.27595974e-06
1.597564631e-05
9.148984511e-06
8.490961311e-06
5.868702484e-06
1.126841955e-05
2.898303057e-06
1.653694064e-06
1.449216083e-06
1.893622143e-06
1.418593886e-06
8.348306523e-06
5.177756448e-06
8.758481735e-07
2.325992526e-06
5.043411514e-06
6.253797611e-06
1.002805979e-05
1.893340929e-05
2.689811644e-05
3.510353848e-05
5.412602614e-05
5.255255871e-05
4.926557112e-05
2.216677418e-05
1.331656967e-05
1.304274119e-05
2.663141939e-05
1.976360518e-05
5.45508202e-05
7.431565537e-05
7.859369906e-05
7.487990204e-05
6.735371248e-05
1.732022944e-05
1.308550913e-05
9.027375214e-06
5.830903262e-06
8.852839549e-06
4.989755814e-06
4.894769249e-06
8.331226863e-06
4.05759448e-05
3.129425168e-05
4.457565163e-05
2.603959412e-05
2.566194124e-05
3.149159098e-05
2.370705065e-05
2.321264619e-05
2.432303499e-05
2.436774068e-05
1.693959732e-05
2.13659026e-05
1.692532418e-05
1.856983188e-05
1.991514916e-05
1.663115704e-05
3.238046905e-05
3.194432328e-05
2.833343164e-05
2.688110829e-05
1.860169933e-05
2.569744061e-05
1.788994067e-05
1.922298487e-05
1.555158285e-05
1.854312498e-05
1.832239679e-05
2.82136841e-05
2.821996964e-05
3.250174919e-05
3.065895579e-05
2.336616508e-05
1.419730732e-05
1.642299078e-05
2.13926393e-05
2.587583705e-05
1.503475962e-05
6.33096216e-06
7.396067536e-06
8.86363445e-06
1.208537188e-05
3.236605168e-05
2.153438471e-05
1.802651914e-05
1.386378741e-05
4.33707698e-06
4.244777676e-06
4.943649627e-06
2.171694719e-05
1.765338894e-05
1.516522366e-05
3.259035919e-06
3.91798593e-06
1.599862038e-05
9.428691847e-07
1.258575556e-06
2.150827602e-06
7.175372253e-06
9.29552128e-06
1.227385404e-05
5.6907576e-07
5.303484865e-07
8.18751109e-07
6.723445057e-07
3.104491493e-06
3.772599989e-06
6.310224686e-06
3.886441557e-06
4.52460096e-06
3.885513057e-06
1.785186806e-06
8.198560058e-08
8.682522308e-08
5.638091848e-07
4.522571197e-07
4.122393486e-07
3.010023666e-09
4.680220251e-09
4.695608329e-09
5.383091268e-07
6.077511622e-07
2.067077885e-07
7.112052503e-09
8.212739398e-09
5.872569788e-09
3.610241596e-06
7.097123247e-06
2.608355827e-06
1.219204892e-07
1.481742106e-07
4.913780974e-08
2.684454697e-06
1.560987475e-06
4.450940247e-06
2.341988397e-06
3.044410428e-06
8.629979765e-07
4.565384727e-06
5.459260272e-06
6.139509472e-06
5.783297394e-05
4.553147817e-05
3.628993401e-06
4.822347454e-06
4.466563336e-05
5.035539222e-05
4.416067983e-06
4.037733835e-05
3.558063016e-05
3.541204391e-05
3.51958127e-05
6.142526009e-06
7.0952652e-06
5.3900529e-06
2.935411981e-05
2.858023405e-05
3.334733487e-05
9.515234482e-06
9.739015295e-06
8.381991207e-06
2.473934361e-05
2.565751504e-05
1.187128033e-05
2.253245425e-05
1.987399803e-05
1.900188135e-05
1.031452121e-05
1.096031772e-05
1.179672593e-05
1.815658e-05
1.333546177e-05
1.089441171e-05
1.1567272e-05
6.975955315e-06
6.564725857e-06
8.252290881e-06
1.056573637e-05
1.031798752e-05
5.942569862e-06
5.694312879e-06
1.050262924e-05
8.853529771e-06
2.532379962e-06
4.389048412e-06
1.218144676e-05
9.190041363e-06
1.198802811e-05
1.122386115e-05
5.957440521e-06
2.799021887e-06
1.891646885e-06
3.473207594e-06
1.647352145e-06
1.860969781e-06
1.589886138e-05
2.00998114e-05
2.095911335e-05
1.343498676e-05
4.572537705e-05
1.644304978e-05
1.129682233e-05
2.522715086e-05
2.590195236e-05
2.342651232e-05
2.37791657e-05
2.132086786e-05
1.900086452e-05
2.402709682e-05
1.547209631e-06
1.642128693e-06
1.940692329e-06
2.003396049e-06
3.712279463e-06
4.576576631e-06
2.76794264e-05
1.436038515e-05
7.796663909e-06
5.783109823e-06
7.274103355e-06
4.195885527e-06
4.35429736e-06
6.771810497e-06
9.418133714e-06
4.730812075e-06
5.229645291e-06
2.964421257e-06
1.938964946e-06
1.936176912e-06
1.55257355e-06
1.382839439e-06
1.500176331e-06
1.36699128e-06
1.593027228e-06
1.636754689e-06
5.261507174e-06
3.413626177e-06
1.915454555e-06
2.33243244e-06
3.944273343e-06
4.408590255e-06
6.399748566e-06
9.404831559e-06
1.255925889e-05
1.426630509e-05
2.479701937e-05
3.888925669e-05
3.670599192e-05
3.018345346e-05
3.075735807e-05
1.666599252e-05
2.613271052e-05
2.985260651e-05
3.143564869e-05
4.329373308e-05
6.338669289e-05
5.131349065e-05
4.947308893e-05
7.213146033e-05
9.085479483e-06
4.354874017e-06
8.212567137e-06
2.215482792e-06
1.385691217e-06
2.975438241e-06
1.145888622e-06
1.181115749e-06
2.463969656e-06
1.280246337e-06
6.459228957e-07
2.247238739e-06
1.844887223e-06
7.246027367e-06
4.253481317e-06
1.230020535e-05
1.447942858e-05
9.304190577e-06
1.134652683e-05
1.108553777e-05
1.586931729e-05
1.459578275e-05
1.391241915e-05
2.255463594e-05
9.732100688e-06
1.247409522e-05
1.866478784e-05
1.650513621e-05
2.274310234e-05
2.932894895e-05
1.953623476e-05
1.463733252e-05
2.754128592e-05
1.068591095e-05
8.50056058e-06
1.646921725e-05
7.783775992e-06
8.293803837e-06
1.42405723e-05
1.008078684e-05
1.327666257e-05
1.961297314e-05
1.034294245e-05
4.841869514e-06
9.918867969e-06
2.046412855e-06
8.354751714e-07
2.029846824e-06
3.97268955e-07
2.833095391e-07
6.205876668e-07
2.961525619e-07
3.805739254e-07
6.224537313e-07
5.326425013e-07
1.140535588e-06
2.935707933e-07
2.411430869e-05
2.681989141e-05
2.216076158e-05
3.285045384e-05
5.010991051e-05
3.142026496e-05
4.863769728e-05
1.789984888e-05
9.815858294e-06
8.626081615e-06
7.399112174e-06
8.544510859e-06
5.355420587e-06
7.9099381e-06
9.134214385e-06
1.675133749e-05
1.906968467e-05
2.03372679e-05
8.695499621e-06
4.908526119e-06
8.28808797e-06
3.443279444e-06
2.978715772e-06
4.843447083e-06
3.082670414e-06
3.681125334e-06
5.324270192e-06
4.936772081e-06
7.163292764e-06
9.481429659e-06
1.057628799e-05
1.466138845e-05
1.667273021e-05
2.221397365e-05
1.504424215e-05
2.504502374e-05
9.02304728e-06
4.907727756e-06
9.776214389e-06
2.412350694e-06
1.054267625e-06
2.157548263e-06
4.080763266e-07
1.568274451e-07
3.315555997e-07
8.090496409e-08
6.703339401e-08
1.346663824e-07
7.853103927e-08
1.204558214e-07
2.180951524e-07
2.366402429e-07
7.122688747e-07
6.171537968e-07
4.473945565e-06
8.95033583e-06
1.406971503e-05
1.981976088e-05
5.048447048e-05
5.319346399e-05
6.844426715e-05
2.755730407e-05
2.402141787e-05
7.430643133e-06
4.66311522e-06
5.989778768e-06
4.458511046e-06
9.304067289e-06
8.058910152e-06
2.200117035e-05
1.350676514e-05
1.697248216e-05
3.432791623e-06
1.480975555e-06
2.811364579e-06
1.150146e-06
1.188728272e-06
1.868545694e-06
1.442329515e-06
1.95012684e-06
2.642376248e-06
2.899669726e-06
4.606081929e-06
5.649269215e-06
7.521227303e-06
1.199013734e-05
1.314231387e-05
1.768453824e-05
2.377720008e-05
2.243537153e-05
2.964104948e-05
3.378208642e-05
2.505971027e-05
1.625458773e-05
1.363369718e-05
1.923177677e-05
9.980563381e-06
6.697729874e-06
9.022562768e-06
4.287167793e-06
2.621684524e-06
3.014859294e-06
1.477919789e-06
7.247333827e-07
7.144826878e-07
2.911838929e-07
9.65927955e-08
1.049500779e-07
3.646450097e-08
2.417653572e-08
3.659539589e-08
2.275521671e-08
2.630900412e-08
5.848202202e-08
4.484285988e-08
3.101753576e-07
6.948506533e-07
1.109952093e-06
3.028285948e-06
5.231243949e-06
1.029918184e-05
3.932771119e-05
4.493692059e-05
5.592918236e-05
2.145525772e-05
2.63154117e-05
4.98991027e-06
3.533349011e-06
3.676777037e-06
8.252839783e-06
1.417868824e-05
1.15045949e-05
2.069342237e-05
6.616026955e-06
9.752236718e-06
1.113766834e-06
3.830189946e-07
7.329639621e-07
4.551777961e-07
6.181730948e-07
8.063785792e-07
8.624119985e-07
1.246449163e-06
1.504516605e-06
1.948547251e-06
3.318080008e-06
3.859708861e-06
5.889432564e-06
9.631427524e-06
1.090997915e-05
1.357715775e-05
1.734211305e-05
2.183225929e-05
2.196338512e-05
2.864004432e-05
3.466368472e-05
3.609722131e-05
3.79831345e-05
3.081005037e-05
9.63984455e-06
9.291582139e-06
1.088819674e-05
8.162809066e-06
6.805263019e-06
6.32100778e-06
5.493959977e-06
4.213944912e-06
3.057262836e-06
2.877723529e-06
1.574670897e-06
9.70405957e-07
6.149016843e-07
1.625932463e-07
1.129308288e-07
3.757446362e-08
1.879459971e-08
1.995869211e-08
1.687689762e-08
1.725967528e-08
1.815413495e-08
1.842689152e-08
5.126718597e-08
8.071266291e-08
4.101294301e-07
1.628257176e-06
1.93673982e-06
7.840875193e-06
3.062201337e-05
3.466915722e-05
3.28178074e-05
1.198431785e-05
1.561823796e-05
3.900848744e-06
6.267377108e-06
4.642762646e-06
1.123649229e-05
1.660015033e-05
1.624705929e-05
1.40836857e-05
2.93195981e-06
4.365025135e-06
3.673779016e-07
1.890190254e-07
2.426498059e-07
3.279951516e-07
5.140512423e-07
5.376646866e-07
7.571424989e-07
1.092753818e-06
1.123928232e-06
1.63052593e-06
2.656583968e-06
2.92838203e-06
4.582059707e-06
6.522158328e-06
8.111416249e-06
7.587710466e-06
8.30054398e-06
1.234734505e-05
9.788208976e-06
1.332930874e-05
2.031279399e-05
2.017655413e-05
2.910329241e-05
3.547277707e-05
4.383988836e-06
4.76450347e-06
6.361080276e-06
5.348148444e-06
6.032845766e-06
7.76203318e-06
6.697193654e-06
7.328717925e-06
7.395402294e-06
7.966068649e-06
8.37981454e-06
6.130718646e-06
7.816561046e-06
5.637789006e-06
2.958919941e-06
2.652858785e-06
6.592169016e-07
2.921264909e-07
8.620559826e-08
2.129244142e-08
1.920908701e-08
1.763875715e-08
1.858264673e-08
1.738654877e-08
2.427247464e-08
1.034622727e-07
6.369121478e-08
6.626896872e-07
1.968063962e-06
1.738042124e-06
9.159628508e-06
2.013334752e-05
2.605928738e-05
1.451701275e-05
9.615426185e-06
1.053840913e-05
3.437739528e-06
5.215212065e-06
6.485824703e-06
9.874456215e-06
1.23249624e-05
1.503891556e-05
8.509037889e-06
1.60295726e-06
2.095872847e-06
2.600187219e-07
1.774709526e-07
1.717306235e-07
3.633954146e-07
5.881919833e-07
5.298118659e-07
8.575978433e-07
1.209217417e-06
1.124463218e-06
1.701214941e-06
2.391760852e-06
2.480732897e-06
3.48931719e-06
3.904946538e-06
5.07813468e-06
3.755386902e-06
3.714224421e-06
5.5146267e-06
4.204739025e-06
5.696610633e-06
8.621237978e-06
9.132866867e-06
1.542519058e-05
2.18170705e-05
2.260875919e-05
2.497752825e-05
2.736428457e-05
3.631184803e-06
3.935608811e-06
3.99229766e-06
4.014475198e-06
3.972792475e-06
4.071687258e-06
3.934433657e-06
4.030771674e-06
4.632423835e-06
4.430558689e-06
5.405367333e-06
6.379285241e-06
7.323281895e-06
1.002047262e-05
9.854591266e-06
1.175473912e-05
1.065714333e-05
8.85269235e-06
7.043209594e-06
2.942976656e-06
1.606517522e-06
5.155975908e-07
3.457587405e-08
2.580008167e-08
3.224731125e-08
5.793367947e-08
2.253519531e-08
1.273583241e-07
5.807067107e-07
2.182061211e-07
1.039092986e-06
2.012149593e-06
2.06613527e-06
8.328085483e-06
9.334320547e-06
1.39231121e-05
7.189872574e-06
8.147200194e-06
8.850762551e-06
2.888460693e-06
5.772180328e-06
4.293224602e-06
1.225743293e-05
6.963883252e-06
9.458928519e-06
4.197750563e-06
1.007595013e-06
1.264915743e-06
2.975301165e-07
3.246911361e-07
2.134635238e-07
7.088875424e-07
1.042289892e-06
7.180832736e-07
1.334814065e-06
1.729976323e-06
1.366218745e-06
2.359715739e-06
2.707518533e-06
2.412222522e-06
2.874499742e-06
2.386794436e-06
3.02218681e-06
1.962101688e-06
1.792630332e-06
2.55639602e-06
1.944056397e-06
2.600829673e-06
3.848640383e-06
4.226189208e-06
7.385190086e-06
1.066949118e-05
1.145518782e-05
1.394315995e-05
1.955385584e-05
1.388348842e-05
1.402275949e-05
1.735519926e-05
2.167911617e-06
3.556234966e-06
3.854849912e-06
4.440221028e-06
4.705437312e-06
4.195773975e-06
4.735632529e-06
4.695399312e-06
4.042505182e-06
4.810668701e-06
5.376422021e-06
5.117344836e-06
6.66497652e-06
8.756269275e-06
9.536064652e-06
1.180791507e-05
1.733400335e-05
1.124300009e-05
2.66241434e-05
3.373517277e-05
3.523470562e-06
3.503899145e-05
3.216606014e-05
4.736412868e-06
2.410031071e-05
1.176409e-05
4.380360155e-06
3.064568297e-06
7.003614098e-07
6.405179492e-07
5.641419204e-07
8.038317064e-07
1.516659106e-06
6.916612176e-06
4.591020546e-06
6.573479555e-06
3.463133021e-06
7.998534103e-06
7.684055036e-06
1.310328518e-05
3.247042888e-05
1.434391094e-05
2.661629194e-05
2.52071714e-06
4.605244724e-06
1.649725164e-06
7.332278052e-07
8.700461328e-07
3.479323324e-07
7.677467427e-07
6.235159596e-07
1.943886772e-06
3.64107799e-06
2.108172125e-06
5.465391641e-06
6.878777946e-06
3.154931208e-06
8.258781605e-06
6.713692658e-06
4.004336677e-06
2.947114892e-06
1.565367015e-06
1.939732122e-06
1.061264117e-06
8.671203998e-07
1.261149271e-06
8.574717786e-07
1.08724556e-06
1.713691911e-06
1.835452941e-06
3.463855375e-06
5.108572106e-06
5.27179764e-06
6.080826283e-06
9.435623211e-06
6.014238511e-06
6.200826213e-06
9.640814949e-06
1.416991495e-06
2.666231475e-06
2.982300476e-06
4.714503907e-06
7.188055624e-06
5.681298768e-06
9.521015821e-06
1.042905427e-05
6.6980935e-06
9.816398019e-06
8.40729177e-06
6.596379379e-06
7.021796263e-06
6.747174427e-06
7.841214348e-06
9.844758427e-06
1.996682485e-05
2.154900181e-05
4.042632409e-05
7.482040755e-05
6.357922136e-05
0.0001059298677
9.634904283e-05
5.91406076e-05
5.983538382e-05
2.40454269e-05
1.808290756e-05
4.419221338e-06
1.101573621e-06
8.181706638e-07
6.012655405e-07
2.926033196e-08
3.554764763e-09
4.461300456e-06
2.037722289e-06
3.129391484e-06
3.603874538e-06
2.161002488e-05
1.168481716e-05
5.001877593e-05
5.325115368e-05
4.816086748e-05
2.837818718e-05
1.529870377e-06
1.482869248e-06
1.833608619e-06
1.055431028e-06
8.190261023e-07
3.974113909e-07
2.963795396e-07
4.757980943e-07
9.826286137e-07
2.248127862e-06
2.96277919e-06
3.658395508e-06
4.743766235e-06
5.929298289e-06
6.299601956e-06
3.006785662e-06
5.192776109e-06
1.090287297e-06
6.154475759e-07
1.028522373e-06
4.526390719e-07
3.843222936e-07
5.738855677e-07
3.732486961e-07
4.301782644e-07
6.754145922e-07
6.69725781e-07
1.405133496e-06
2.256070785e-06
1.893151253e-06
2.028340549e-06
3.618599256e-06
2.312668521e-06
2.759173907e-06
4.020339099e-06
2.348784739e-06
1.141484449e-06
2.538803709e-06
6.813977532e-07
6.316192674e-07
2.377044011e-06
8.10026324e-07
1.132237818e-06
6.767514079e-06
1.596968834e-06
2.160971559e-06
9.681838916e-06
2.794344496e-06
3.567670945e-06
7.25688065e-06
5.222923723e-06
1.02959604e-05
7.523040693e-06
2.005454127e-05
2.823519286e-05
2.394083435e-05
2.955313744e-05
2.544404082e-05
3.773799403e-05
1.969444015e-05
1.533887587e-05
7.055128012e-05
1.509002128e-05
1.185493719e-05
2.900680152e-05
1.632352399e-06
1.371513449e-06
1.392918172e-06
2.508371925e-06
7.07532077e-06
8.588435054e-07
6.346546743e-07
9.467983157e-07
1.317140699e-06
7.695802586e-06
2.984402938e-05
3.045720048e-05
4.353548596e-05
4.188253026e-05
5.003629399e-05
2.225384749e-05
2.523437177e-06
2.130924571e-06
2.168108127e-06
1.438795961e-06
1.286177825e-06
6.673282062e-07
2.271555909e-07
2.27418866e-07
3.97998895e-07
1.077419654e-06
1.605766201e-06
1.882222076e-06
2.352926822e-06
3.486594538e-06
2.268170345e-06
1.144437429e-06
1.548894549e-06
6.542088385e-07
4.916086991e-07
4.275673154e-07
3.567446246e-07
2.693543054e-07
2.735400363e-07
2.344238014e-07
2.266086022e-07
2.893916753e-07
2.623193033e-07
4.44123263e-07
8.33960613e-07
8.254145318e-07
1.13637143e-06
1.343890027e-06
1.562907972e-06
2.018082219e-06
2.207772518e-06
1.737562853e-06
1.555148975e-06
2.312426419e-06
3.712782422e-08
3.082583052e-08
1.955230118e-07
3.153809384e-08
4.045626535e-08
1.63254669e-07
6.617183608e-08
1.345202732e-07
2.941600907e-07
3.113776375e-07
7.23343514e-07
7.956085386e-07
1.542079774e-06
3.045987341e-06
2.742824497e-06
5.877030539e-06
1.073835495e-05
1.244457129e-05
1.646539878e-05
1.968342904e-05
2.648119315e-05
1.865472079e-05
1.499974184e-05
2.060474632e-05
1.098657267e-05
7.545724201e-06
9.705643072e-06
4.744452894e-06
2.480816068e-06
3.011520233e-06
8.176335532e-07
7.180635052e-08
3.628309522e-07
6.481688267e-08
4.422506202e-08
2.41709197e-07
1.015926181e-07
6.434200666e-07
7.932125856e-07
5.799371945e-06
1.302786805e-05
2.209217244e-05
1.789745764e-05
1.94837992e-05
3.093963472e-05
1.222819034e-05
2.462783758e-06
2.503272576e-06
2.066134968e-06
1.512137543e-06
1.509732353e-06
8.203215235e-07
3.131365446e-07
2.620579486e-07
1.841486384e-07
3.624331042e-07
6.595304542e-07
6.749216509e-07
7.9234491e-07
1.454494561e-06
6.01494024e-07
3.910992659e-07
9.05965423e-07
2.655598463e-07
1.979067209e-07
4.326188226e-07
1.612446143e-07
1.423383381e-07
2.896629541e-07
1.374418411e-07
1.14653936e-07
2.203959233e-07
1.053551303e-07
1.423396247e-07
2.703389285e-07
2.718580645e-07
5.409556946e-07
8.9578872e-07
9.397154495e-07
1.461905608e-06
1.833637199e-06
8.612090091e-07
5.293997085e-07
1.006294258e-06
7.547667194e-09
1.227679208e-08
9.506800958e-09
1.993258481e-08
3.163731871e-08
2.798553565e-08
4.849668871e-08
7.310597349e-08
1.031653361e-07
1.178309092e-07
2.465846132e-07
6.075322641e-07
6.564632765e-07
1.214160548e-06
2.367591566e-06
1.847094586e-06
2.815979831e-06
6.531598749e-06
4.337979821e-06
6.092102035e-06
1.201069016e-05
7.113319664e-06
7.454158812e-06
1.019348613e-05
7.610740415e-06
7.437471966e-06
6.564049117e-06
6.222552226e-06
3.763945526e-06
2.820109714e-06
1.189956706e-06
5.698218039e-09
1.626557434e-08
5.550353894e-09
1.218913932e-08
2.028243056e-08
3.642956014e-08
1.33339782e-07
4.009718449e-07
3.313234143e-06
5.011148503e-06
6.76398274e-06
4.383286824e-06
4.128479087e-06
9.951169522e-06
3.821167783e-06
2.961776615e-06
2.74310537e-06
2.231565438e-06
1.388505568e-06
1.457260042e-06
9.067482992e-07
5.257993204e-07
3.835581666e-07
2.441278776e-07
1.338258525e-07
1.882155115e-07
1.482795458e-07
1.353729941e-07
3.599509878e-07
7.555751934e-08
4.807349279e-08
1.416556388e-07
3.688084661e-08
3.191869557e-08
7.848334141e-08
3.052316408e-08
3.243653103e-08
6.516897687e-08
5.209256158e-08
5.107997668e-08
6.708313339e-08
3.911039878e-08
6.161550279e-08
8.545923428e-08
1.197271602e-07
2.304279741e-07
3.058314479e-07
4.713295946e-07
8.802397453e-07
1.355657953e-06
7.471124025e-07
5.371795488e-07
2.233589652e-07
1.129589763e-08
1.899165184e-08
1.513770979e-08
3.044590854e-08
4.100921509e-08
3.583789266e-08
5.412734482e-08
8.283029065e-08
7.575107745e-08
1.301429854e-07
2.100448834e-07
1.684143545e-07
3.890050853e-07
6.918666304e-07
1.082464596e-06
1.002365679e-06
1.860834448e-06
1.989154514e-06
6.017909563e-06
1.892489602e-05
3.550067851e-06
3.459691002e-05
4.420715421e-05
7.70491524e-06
4.771214425e-05
4.38152674e-05
9.691625338e-06
3.272303541e-05
1.810038161e-05
4.567229902e-06
5.686613537e-06
1.425834093e-09
1.774712528e-09
2.404612671e-09
5.979595239e-09
5.733868822e-09
2.641887765e-08