/*--------------------------------*- C++ -*----------------------------------*\
| =========                 |                                                 |
| \\      /  F ield         | OpenFOAM: The Open Source CFD Toolbox           |
|  \\    /   O peration     | Version:  2.1.x                                 |
|   \\  /    A nd           | Web:      www.OpenFOAM.org                      |
|    \\/     M anipulation  |                                                 |
\*---------------------------------------------------------------------------*/
FoamFile
{
    version     2.0;
    format      ascii;
    class       surfaceScalarField;
    location    "0.5";
    object      phi;
}
// * * * * * * * * * * * * * * * * * * * * * * * * * * * * * * * * * * * * * //

dimensions      [1 1 -1 0 0 0 0];

internalField   nonuniform List<scalar> 
5536
(
-5.496524116e-10
-2.529519464e-09
2.21556122e-09
-4.663548059e-09
-7.525239552e-09
6.834467569e-09
-5.147236883e-09
-6.074125033e-09
1.019174033e-09
-3.396241578e-11
-6.487845126e-10
6.110571303e-11
-4.357112935e-10
-9.430525452e-09
-1.094142299e-09
-3.963053391e-10
2.653706316e-10
-4.965063374e-10
-1.233109596e-10
3.075252422e-10
1.21497599e-10
-3.39256524e-10
-2.141128926e-11
5.361348275e-10
-1.285549217e-10
-4.959685844e-10
3.636115247e-10
1.80962731e-09
-7.46869842e-10
-1.343162101e-09
1.414738718e-09
4.863368735e-09
-2.602722609e-09
-2.930387503e-09
4.629333262e-09
7.267440344e-09
-6.866508819e-09
-5.659633426e-09
5.428985444e-09
8.628053517e-10
-1.373255142e-09
-1.003622214e-09
2.589927441e-10
7.456791129e-09
-5.93921763e-10
-5.842368773e-09
1.190644435e-09
1.249273666e-08
-2.155306825e-09
-1.002107509e-08
2.8902819e-09
1.324281915e-08
-8.445492724e-09
1.350595556e-09
-3.278077019e-09
-2.690162897e-09
-6.376070247e-09
3.365256954e-09
-1.901679428e-09
-1.091387569e-09
1.623728098e-09
6.956646223e-10
-8.607969454e-10
-4.283297833e-10
4.903403579e-10
2.223018882e-10
-2.457946505e-10
-1.342491709e-10
2.674458165e-10
1.005655657e-10
-1.422587806e-10
-8.630232049e-11
2.507688349e-10
7.635788371e-11
-1.45898736e-10
-2.423172078e-11
3.701455637e-10
-1.438701569e-10
-2.656376665e-10
2.710483688e-10
1.197871971e-09
-6.194908921e-10
-1.43465004e-09
1.051495379e-09
1.871121237e-09
-1.488073403e-09
-1.490289121e-09
1.863830489e-09
3.39792487e-09
-2.49262975e-09
-1.637464134e-09
2.535769459e-09
8.744581603e-10
-1.060834236e-09
-5.92779975e-10
2.895516077e-10
4.188371074e-09
-4.272163475e-10
-3.196290753e-09
5.622992026e-10
6.685042329e-09
-8.930577011e-10
-4.22400741e-09
1.234507206e-09
4.890347689e-09
-1.356068948e-09
-2.519452425e-09
1.277427084e-09
3.605256598e-09
-1.208762429e-09
-1.942494513e-09
1.226762205e-09
4.002849357e-09
-1.40509483e-09
-2.481786606e-09
1.757903763e-09
-3.720601963e-09
2.38333888e-09
-1.743789542e-09
1.577176769e-09
-1.849450399e-09
-1.573711506e-09
1.453271826e-09
1.183783533e-09
-8.290762395e-10
-6.308661734e-10
4.373530876e-10
2.834342181e-10
-1.966771427e-10
-1.209770513e-10
1.155053702e-10
5.754334223e-11
-5.23666149e-11
-3.644688702e-11
8.173939044e-11
3.178382166e-11
-5.126078125e-11
-3.233014735e-11
9.780845311e-11
2.988213777e-11
-9.764951147e-11
-7.512966293e-12
3.151428223e-10
-1.189721063e-11
-6.997621107e-10
5.321047354e-10
2.196616105e-09
-1.128021855e-09
-2.737129589e-09
9.138754785e-10
1.982354699e-09
-5.765637063e-10
-4.172121733e-09
8.485855894e-11
6.090704033e-10
-2.660867163e-11
-4.921914766e-10
7.364134863e-11
4.119018933e-10
-1.030739367e-10
-3.211303651e-10
1.116748103e-10
2.890101675e-09
-1.782304852e-10
-3.099536742e-09
2.245001264e-10
2.705272803e-09
-3.331273291e-10
-1.72287512e-09
3.819663212e-10
1.347513723e-09
-3.558158613e-10
-7.830613591e-10
3.35587326e-10
1.13792229e-09
-3.478836956e-10
-7.365244882e-10
4.040608424e-10
1.607238621e-09
-5.249544116e-10
-1.116079584e-09
7.524309953e-10
2.869742314e-09
-1.133853102e-09
-2.215872757e-09
1.631357619e-09
3.044876137e-09
-3.053658628e-09
1.742772543e-09
-2.022329742e-09
-1.628231577e-09
-2.609435661e-09
2.054182767e-09
2.705891009e-09
-1.5720622e-09
-2.085062947e-09
1.232978211e-09
1.405989626e-09
-6.668265971e-10
-8.083279287e-10
3.939995219e-10
3.905260319e-10
-1.950966811e-10
-1.680532479e-10
8.668883305e-11
6.7754773e-11
-4.502319253e-11
-2.764268037e-11
2.498156799e-11
1.465842116e-11
-1.383100122e-11
-1.214811691e-11
3.173734226e-11
1.359870098e-11
-1.90152124e-11
-1.747606153e-11
7.465428561e-11
2.272537142e-11
-5.955043822e-11
-2.187564421e-11
6.409639426e-10
-1.662023185e-12
-3.614202145e-10
1.934147003e-10
2.482584726e-09
-4.645949316e-10
-1.921712237e-09
8.354672068e-10
6.176753781e-09
-1.36282142e-09
-6.884151683e-09
9.153918038e-10
4.611187865e-10
-1.299074271e-10
-4.260961976e-10
5.914067592e-11
2.734323492e-10
-6.736371182e-11
-2.936036598e-10
6.976236095e-11
3.615349673e-09
-1.164637443e-10
-4.112682337e-09
-4.038902179e-12
1.045435046e-09
-2.177604483e-12
-6.278932527e-10
1.260804194e-10
4.758465501e-10
-1.296695942e-10
-2.946576995e-10
1.358111432e-10
5.063666172e-10
-1.583636165e-10
-3.645439304e-10
2.040798143e-10
8.197828783e-10
-2.85317189e-10
-6.272018599e-10
4.312820163e-10
1.754404398e-09
-6.895797951e-10
-1.434851258e-09
1.108178217e-09
3.176111457e-09
-1.671206034e-09
-3.19098368e-09
2.252430466e-09
3.963399022e-09
-2.719048011e-09
-5.25429312e-09
2.973764787e-09
-4.646564228e-09
-2.52258205e-09
1.521501168e-09
2.167407614e-09
-1.11913712e-09
-1.857935734e-09
9.943307865e-10
1.383556269e-09
-6.82332148e-10
-8.858783697e-10
3.868774801e-10
5.183078425e-10
-2.941556155e-10
-2.887351703e-10
1.283186759e-10
1.531274865e-10
-1.224792797e-10
-7.497879711e-11
3.4179869e-11
3.279620971e-11
-3.705617213e-11
-1.338206164e-11
9.332497551e-12
6.692627421e-12
-7.766389885e-12
-5.260216847e-12
1.107517284e-11
5.499214374e-12
-7.181718264e-12
-7.112226252e-12
3.680522325e-11
1.207215961e-11
-1.328250154e-11
-2.649392714e-11
1.901179817e-10
-9.028325053e-12
-9.515357575e-11
8.608957168e-11
1.353172809e-09
-2.316618875e-10
-9.44971781e-10
5.15595005e-10
6.474683234e-09
-1.111566032e-09
-5.44816927e-09
1.025507864e-09
3.669910734e-10
-1.413864133e-10
-2.904577109e-10
3.171039463e-11
4.216672139e-10
-4.232951545e-11
-6.740574384e-10
1.02332235e-10
4.234782007e-09
-1.042159363e-10
-3.873508657e-09
-1.484107381e-10
3.747896396e-10
3.713892931e-11
-2.147125394e-10
3.849390534e-11
1.946281956e-10
-4.665536656e-11
-1.494354908e-10
6.296569094e-11
2.81615539e-10
-8.971631809e-11
-2.407757346e-10
1.291447923e-10
4.982834034e-10
-1.896488612e-10
-4.141391936e-10
2.947975559e-10
1.205456501e-09
-4.869951312e-10
-1.026794044e-09
8.305791634e-10
2.993807161e-09
-1.3640796e-09
-2.543532929e-09
2.035845859e-09
5.528971648e-09
-2.787042568e-09
-4.62912274e-09
3.622885341e-09
6.692210435e-09
-4.395410576e-09
-7.120258023e-09
4.465185681e-09
-3.346058816e-09
-2.761529529e-09
6.120247823e-10
-4.057484353e-10
-9.86990375e-10
1.082591481e-09
8.078321852e-10
-5.931058263e-10
-1.007045115e-09
5.490591154e-10
8.175126485e-10
-4.894559308e-10
-6.133580163e-10
2.895949132e-10
4.45367421e-10
-3.25883896e-10
-3.156532917e-10
1.493753186e-10
2.108364081e-10
-2.029609243e-10
-1.236186401e-10
4.907780619e-11
5.792239166e-11
-7.265807695e-11
-2.048015871e-11
7.681430572e-12
7.090529587e-12
-8.554651505e-12
-4.447857437e-12
6.1810709e-12
3.873295375e-12
-6.11844544e-12
-3.340673533e-12
6.700728831e-12
2.441831991e-12
-7.473054117e-12
-9.324092324e-13
4.960989558e-11
-4.968946786e-12
-4.16692989e-11
3.306671981e-11
7.254926962e-10
-1.056303894e-10
-6.54529402e-10
2.799025272e-10
4.164328067e-09
-5.73386344e-10
-2.849947416e-09
2.520299715e-10
2.477680251e-10
1.858358382e-11
-2.362694947e-10
2.436315862e-12
9.685243624e-10
-6.536092616e-11
-1.163144106e-09
2.343330214e-10
3.201615306e-09
-1.242448544e-10
-2.472010135e-09
-1.188657498e-10
1.245347698e-10
2.709004524e-11
-8.460126622e-11
9.174774944e-12
1.354898149e-10
-2.434351954e-11
-1.366103604e-10
4.927807161e-11
2.271907324e-10
-8.151936431e-11
-2.29335677e-10
1.201142394e-10
3.633295956e-10
-1.679824606e-10
-3.365870809e-10
2.417011306e-10
8.74872071e-10
-3.776480664e-10
-7.404582491e-10
6.274953013e-10
1.958295136e-09
-9.417367542e-10
-1.40846953e-09
1.226517063e-09
3.256783333e-09
-1.521842172e-09
-2.079948008e-09
1.987944081e-09
5.995054171e-09
-2.798390289e-09
-4.333765146e-09
3.888335487e-09
4.734308975e-09
-5.181487466e-09
3.422247698e-09
-4.468141164e-09
-2.206344737e-10
-3.828812055e-10
3.156101034e-10
4.123981464e-10
-2.505746918e-10
-4.879019426e-10
4.287967852e-10
5.727741557e-10
-3.139411176e-10
-6.349932284e-10
4.414002161e-10
6.544638736e-10
-3.761635501e-10
-6.373390795e-10
3.773277094e-10
5.971639713e-10
-4.144034413e-10
-5.335774639e-10
2.872914116e-10
4.325278611e-10
-4.01082223e-10
-2.923485138e-10
1.140753584e-10
1.498895764e-10
-1.766089371e-10
-5.234589886e-11
1.058423512e-11
1.27761796e-11
-1.448547016e-11
-6.012793015e-12
6.138796962e-12
5.632309749e-12
-5.924646898e-12
-5.409912824e-12
9.816063339e-12
4.416937754e-12
-1.369242222e-11
-8.114053678e-14
5.184229771e-11
-8.34828168e-12
-7.229531271e-11
4.254488154e-11
6.698086376e-10
-9.364197997e-11
-6.988147292e-10
1.647399187e-10
1.778470297e-09
-6.016090229e-11
-1.125464567e-09
-7.930483577e-11
2.375250702e-10
5.586081517e-11
-2.234449783e-10
-2.063612134e-11
1.198956089e-09
-1.085493192e-10
-1.134767983e-09
2.77319957e-10
1.844389607e-09
-1.606972403e-10
-1.350249216e-09
-7.280165685e-11
7.316925736e-11
2.363749058e-11
-7.449757798e-11
2.968090707e-12
1.459169967e-10
-2.595999493e-11
-1.620013897e-10
6.199120065e-11
2.407556837e-10
-1.052592782e-10
-2.585974055e-10
1.502585042e-10
3.259025885e-10
-1.944128367e-10
-3.244714418e-10
2.443800659e-10
6.262188775e-10
-3.181374353e-10
-5.398505605e-10
4.467842686e-10
9.888529707e-10
-5.397653739e-10
-7.062262478e-10
5.804813541e-10
1.303592652e-09
-6.368796731e-10
-8.432814307e-10
7.889694819e-10
2.852769645e-09
-1.149695548e-09
-1.807090349e-09
1.867151235e-09
4.658992329e-09
-2.829088377e-09
-3.59910892e-09
3.185719166e-09
1.24542951e-09
-1.625898977e-09
1.27534831e-09
-2.354485296e-09
1.857119831e-10
3.190872562e-10
-1.776411418e-10
-3.003727012e-10
2.24539967e-10
3.170101081e-10
-2.152376654e-10
-3.366541777e-10
2.549738118e-10
3.584469542e-10
-2.350071535e-10
-3.85580727e-10
3.059730956e-10
4.222156963e-10
-2.634811291e-10
-4.712622901e-10
4.093494878e-10
5.331190719e-10
-3.709034322e-10
-5.940427294e-10
5.044057326e-10
6.003816799e-10
-5.271695935e-10
-4.903939868e-10
2.412939733e-10
2.918554783e-10
-2.612845054e-10
-1.1125551e-10
2.057509035e-11
2.357680685e-11
-2.457220687e-11
-6.04590128e-12
4.785816407e-12
7.53838043e-12
-7.006846616e-13
-1.119871917e-11
1.807258156e-11
1.727720715e-11
-1.058493405e-11
-2.394797142e-11
9.552929633e-11
-1.49997713e-11
-9.83015712e-11
3.41276445e-11
6.708271576e-10
-3.858609805e-11
-5.642656406e-10
-1.022045415e-11
7.586316647e-10
6.718529155e-11
-5.227921744e-10
-8.41621548e-11
2.002634385e-10
4.993208899e-11
-1.989858517e-10
-8.489789495e-12
1.137485759e-09
-8.56167884e-11
-1.567419595e-09
2.347407712e-10
9.546479199e-10
-1.580276367e-10
-6.263204139e-10
-4.01287313e-11
8.147432781e-11
2.786562224e-11
-9.119460758e-11
2.418815659e-12
1.858810515e-10
-3.876016001e-11
-2.182738621e-10
9.775801197e-11
2.810687875e-10
-1.597026044e-10
-3.049293889e-10
2.096993124e-10
3.265782883e-10
-2.438610827e-10
-3.287763047e-10
2.726947834e-10
4.858027834e-10
-2.845535842e-10
-4.612439495e-10
3.256938465e-10
5.267702824e-10
-3.234729207e-10
-4.115590749e-10
3.087114762e-10
5.678532844e-10
-3.145065061e-10
-3.906502859e-10
3.65208534e-10
1.147251931e-09
-5.025622904e-10
-7.378057171e-10
8.120154485e-10
2.496480735e-09
-1.352332747e-09
-1.617922814e-09
1.866942175e-09
1.498232061e-09
-1.867340637e-09
-1.094235232e-09
1.494204559e-09
-8.324066364e-10
-1.358117136e-09
-6.475681022e-11
-2.219210621e-10
2.354439092e-10
1.434755754e-10
-1.01680429e-10
-2.781933204e-10
2.09713402e-10
3.165146428e-10
-2.008112722e-10
-3.410448006e-10
2.299236728e-10
3.512757843e-10
-2.34352898e-10
-3.54658569e-10
2.42870137e-10
3.643884941e-10
-2.289621259e-10
-3.928012272e-10
3.282490947e-10
4.50330103e-10
-2.776209686e-10
-5.375644387e-10
4.715792882e-10
6.180213253e-10
-4.067069409e-10
-6.046915563e-10
2.018648166e-10
4.088927424e-10
1.441367523e-10
-1.916856009e-10
1.344712629e-11
1.269171581e-10
1.624407648e-10
-3.482877484e-10
-2.866715978e-12
8.415448366e-10
6.514788433e-10
-6.647549699e-10
-1.747601327e-11
3.022280725e-11
3.136794068e-11
-4.161526384e-11
7.363074047e-11
2.907340613e-11
-5.42157354e-11
-3.680782963e-11
4.913443564e-10
7.593721004e-11
-4.271879955e-10
-2.761261053e-11
3.560890922e-10
2.465578e-11
-2.521694615e-10
-3.088592982e-11
3.135634712e-10
4.445705124e-11
-1.279849472e-09
-1.949387111e-10
3.040650091e-09
2.956681597e-10
-5.350987602e-09
2.92565958e-11
3.701558141e-10
-1.112353114e-10
-2.843769902e-10
6.956377495e-11
9.824385393e-11
-3.124189617e-11
-7.286924762e-11
2.138123204e-11
2.464363965e-10
-4.035838281e-11
-2.04120929e-10
7.883748862e-11
3.226494742e-10
-1.151959041e-10
-3.045311739e-10
1.41836573e-10
3.361141605e-10
-1.69587994e-10
-3.700677477e-10
2.178818566e-10
4.590957802e-10
-2.726462526e-10
-4.62790826e-10
2.810863954e-10
3.289935057e-10
-2.444286348e-10
-2.562739776e-10
2.070239593e-10
2.686103901e-10
-1.866169922e-10
-1.828863811e-10
1.916326969e-10
4.730147653e-10
-2.386304013e-10
-2.943397182e-10
3.659075274e-10
1.002185359e-09
-6.00306665e-10
-5.874404927e-10
8.258137077e-10
6.958308478e-10
-8.73782548e-10
-4.201623764e-10
8.333619266e-10
5.851880905e-10
-5.185675727e-10
1.42820312e-09
-9.207784338e-10
3.234352613e-11
8.734587222e-12
-1.358180856e-10
1.747093915e-10
6.346989729e-11
-3.418406299e-11
-2.143898329e-10
1.834370591e-10
2.684854634e-10
-1.552631308e-10
-3.47428208e-10
2.516556962e-10
4.068843444e-10
-2.72294729e-10
-4.304726406e-10
2.299751471e-10
4.28701054e-10
-2.359344479e-10
-4.171242568e-10
2.381905041e-10
4.074952561e-10
-2.047848183e-10
-4.348044951e-10
3.383578432e-10
6.26183297e-10
-3.345975653e-10
-1.37973092e-09
-1.419757307e-09
3.896313557e-09
5.184426083e-10
-9.448174306e-09
-4.865265969e-09
1.455234996e-08
8.423061788e-09
-1.434955676e-08
-3.599339676e-09
9.749291143e-09
6.661557809e-09
-4.062958601e-09
-3.501739639e-10
6.547849296e-10
2.669212609e-10
-4.347095873e-11
4.585645374e-11
2.63545362e-11
-6.366198602e-11
-6.36587186e-14
3.745396332e-10
-4.362369266e-14
-2.48302773e-10
-1.296342293e-11
2.1945423e-10
1.225990802e-11
-2.889793091e-10
-5.795024016e-11
5.290497178e-09
9.941487903e-10
-1.085237527e-08
-2.973006591e-09
7.091927385e-09
2.071407601e-09
-7.681450928e-09
-3.479747266e-11
3.19016e-10
-4.234694561e-11
-4.80083418e-10
5.919716117e-11
6.907891189e-11
-3.754871948e-11
-9.595299306e-11
1.42795546e-11
1.400126249e-10
-2.160309424e-11
-9.07323304e-11
6.896648868e-11
2.415184878e-10
-1.472049851e-10
-1.786572992e-10
2.342996576e-10
3.257932834e-10
-3.063524596e-10
-2.621327115e-10
3.555342709e-10
3.323821409e-10
-3.395478089e-10
-2.226521853e-10
2.467765373e-10
1.83441088e-10
-1.776825729e-10
-1.291757771e-10
1.370673081e-10
1.250261067e-10
-1.138957947e-10
-8.873877538e-11
1.032091139e-10
1.743583143e-10
-1.081358629e-10
-9.808617348e-11
1.485196797e-10
3.12126851e-10
-2.459783284e-10
-1.479107851e-10
3.295765793e-10
2.744350849e-10
-4.030517512e-10
-2.130091432e-10
4.938509214e-10
4.16394828e-10
-3.203605465e-10
7.971116906e-10
-6.231462145e-10
-1.503555029e-11
1.979900396e-10
8.144973414e-12
-1.670525442e-10
1.62958126e-11
1.26955323e-10
-1.292966424e-11
-1.293829635e-10
1.214737495e-10
2.033004461e-10
-2.632482751e-11
-3.366707588e-10
2.065823327e-10
4.87407227e-10
-4.644622695e-11
-5.461774379e-10
1.806105193e-10
4.928064676e-10
-7.191372083e-11
-3.930027348e-10
1.691138908e-10
3.226329329e-10
-1.565651208e-10
-3.860185402e-10
6.147686131e-10
7.959293677e-10
-1.086033438e-09
-1.686625756e-09
1.500779095e-09
2.619848708e-09
-2.182976181e-09
-3.295415571e-09
-3.748050809e-09
4.763540783e-09
-1.062433657e-09
-8.82817622e-09
-8.675686612e-09
1.024401915e-08
2.962757725e-09
-4.999259573e-09
5.782842313e-11
2.434473718e-10
-9.635585012e-11
-6.482961201e-11
8.836943359e-11
5.054340625e-11
-1.211510932e-10
4.226139632e-12
1.41392114e-10
-2.348858542e-11
-4.035142335e-11
-5.945885337e-12
5.133192123e-10
5.511371726e-11
-8.009088431e-10
-1.01206111e-09
1.301107426e-08
3.601710842e-09
-1.147645108e-08
-4.222599241e-09
7.35217576e-09
2.18587887e-09
-6.332905311e-09
-5.589900942e-11
6.826763761e-10
-8.227764014e-11
-8.279539774e-10
1.162562872e-10
1.403324648e-10
-8.046508059e-11
-1.877560089e-10
3.149875298e-11
5.534302769e-11
-1.26183708e-11
-3.21800342e-11
3.455926293e-11
1.244715281e-10
-8.711456606e-11
-8.241737727e-11
1.464418013e-10
1.825675407e-10
-1.892213912e-10
-1.043857554e-10
1.961006461e-10
1.540879522e-10
-1.51986478e-10
-1.218513275e-10
1.276058418e-10
9.642528711e-11
-1.103876568e-10
-7.363474351e-11
9.390211906e-11
6.457697884e-11
-7.812827363e-11
-4.324333955e-11
6.416702845e-11
5.220257841e-11
-5.250034557e-11
-2.629475881e-11
5.398815477e-11
7.872180831e-11
-9.474269274e-11
-5.494433294e-11
1.689134534e-10
1.901228931e-10
-2.508279319e-10
-1.692342224e-10
3.476323823e-10
2.495515775e-10
-4.617688236e-10
-1.931823604e-10
5.389180262e-10
3.350078159e-10
-2.398067818e-10
-6.501792321e-10
2.409734934e-11
3.319967867e-12
-6.331878897e-13
-1.681648038e-11
4.093420355e-12
1.373830457e-11
-8.4054248e-13
-1.362698726e-11
7.77074963e-12
1.619623828e-11
-2.644915387e-12
-2.201033638e-11
1.9440821e-11
3.383913402e-11
-1.549511117e-11
-5.728927161e-11
5.716603753e-11
1.028213235e-10
-8.185340227e-11
-1.919354122e-10
2.309635729e-10
3.846463843e-10
-3.018926739e-10
-8.440661941e-10
1.303752792e-09
1.669318139e-09
-1.040317117e-09
-2.389293434e-09
1.956336584e-09
2.484409046e-09
-1.384685829e-09
-2.051196011e-09
1.169600307e-09
1.443454779e-09
-8.275752042e-10
-8.96500538e-10
2.965818181e-10
5.004398139e-10
-3.404363987e-10
-2.421498416e-10
6.835445775e-11
7.600380102e-11
-6.557756806e-11
-1.97662097e-11
2.041759457e-11
1.608483118e-11
-4.149480323e-12
-9.062691126e-12
1.489440486e-11
4.586309689e-12
-9.7363921e-12
-1.188461691e-11
8.800639388e-10
1.29033691e-10
-6.936649781e-10
-9.426830035e-10
8.053091243e-09
2.130883241e-09
-4.482549098e-09
-2.309306919e-09
4.846565977e-09
1.211622098e-09
-3.201726879e-09
-3.349858808e-11
8.902980182e-10
-1.287259808e-10
-8.93685847e-10
1.562767362e-10
2.253812457e-10
-1.243070883e-10
-2.431509435e-10
5.973703272e-11
1.855619016e-11
-1.893655682e-11
-1.186550614e-11
1.764912022e-11
5.1388152e-11
-4.418559536e-11
-2.895331975e-11
7.923960741e-11
7.2344157e-11
-1.042127176e-10
-4.527043855e-11
1.140061559e-10
7.426367244e-11
-1.059339975e-10
-3.934784657e-11
8.731353218e-11
4.504447352e-11
-7.387274955e-11
-2.449691552e-11
6.359798406e-11
3.153467393e-11
-5.552035497e-11
-1.759759859e-11
5.013029922e-11
1.984687427e-11
-4.643382622e-11
-1.224973977e-11
4.663324437e-11
3.864899431e-11
-5.754507914e-11
-2.309403577e-11
1.027771836e-10
1.292714516e-10
-1.799947828e-10
-7.862506482e-11
2.813107584e-10
1.366028837e-10
-4.046336792e-10
-7.751088528e-11
4.54775444e-10
1.621286548e-10
-3.914253296e-11
-4.621308038e-10
1.298106171e-13
6.556076661e-15
-8.70555142e-13
1.190217385e-12
1.151966139e-13
2.904251246e-14
-1.898000199e-12
3.737364362e-13
3.288630572e-12
8.741624571e-14
-5.846966634e-12
1.791188694e-12
1.039593694e-11
1.591290618e-13
-1.851915899e-11
1.300332455e-11
3.393272431e-11
-2.432020079e-12
-6.669420553e-11
7.827356097e-11
1.335777195e-10
-4.234036061e-11
-2.417029768e-10
2.320338985e-10
3.945528252e-10
-1.146180564e-10
-6.024703719e-10
5.893634832e-10
8.617476093e-10
-2.338361854e-10
-1.085422032e-09
8.102675906e-10
1.119419612e-09
-4.097382514e-10
-9.741527793e-10
5.657636134e-10
7.852097219e-10
-4.318564846e-10
-6.126606743e-10
3.183616086e-10
4.421417866e-10
-3.274382751e-10
-2.566998238e-10
7.710705251e-11
8.740222138e-11
-7.698179778e-11
-1.36647116e-12
8.456081945e-13
7.902461033e-13
-4.913007809e-13
-1.243195295e-12
8.042073612e-12
3.001234262e-12
-4.569819929e-12
-9.564723835e-12
4.720747198e-10
4.342335958e-11
-3.44760783e-10
-7.915954942e-11
1.95193047e-09
2.494463228e-10
-7.915478757e-10
-3.115536636e-10
1.725883972e-09
1.285551708e-10
-8.112570414e-10
2.057719458e-10
8.505872155e-10
-2.176213872e-10
-7.438205174e-10
2.130309166e-10
2.350804273e-10
-1.64718165e-10
-2.001646308e-10
8.923263446e-11
1.004210669e-11
-3.79830886e-11
-1.26935831e-11
1.662863353e-11
1.398288977e-11
-1.708436762e-11
-6.156351181e-12
2.946865179e-11
2.377519251e-11
-4.125750485e-11
-1.010872216e-11
4.017257764e-11
1.803176956e-11
-3.387588795e-11
-7.138083951e-12
2.792751134e-11
1.127132141e-11
-2.34920032e-11
-4.888718642e-12
2.052576659e-11
9.559244294e-12
-1.885608921e-11
-6.45746204e-12
1.971616948e-11
7.815145585e-12
-2.116316764e-11
-4.598611367e-12
2.13920068e-11
1.417238767e-11
-2.508368281e-11
-1.007949824e-11
4.058276701e-11
4.148479276e-11
-7.526543114e-11
-2.062756817e-11
1.34867601e-10
3.211492728e-11
-2.36966592e-10
-2.559288058e-11
2.783989353e-10
2.760295489e-11
7.686082225e-12
2.462577834e-10
-2.612947067e-10
-6.71217922e-14
8.322539012e-14
-9.442210174e-13
1.753263828e-12
-2.472887263e-13
4.087489042e-13
-3.144959604e-12
-9.450845958e-13
5.367504134e-12
1.600642985e-12
-8.615632393e-12
-2.631502585e-12
1.323772683e-11
4.760432115e-12
-1.965772318e-11
-6.426009704e-12
2.817167804e-11
1.197914187e-11
-3.937368818e-11
-5.148071224e-13
5.888913691e-11
2.515225286e-11
-9.713180315e-11
2.819250986e-11
1.577303778e-10
2.828595608e-11
-2.147048159e-10
4.985921423e-11
2.722643402e-10
3.700932324e-11
-3.40778434e-10
2.155387487e-10
5.016910001e-10
-1.086773465e-10
-7.942120815e-10
3.744321918e-10
1.084753516e-09
-1.621854177e-10
-1.217903545e-09
2.927415064e-10
1.043523667e-09
-8.198097632e-11
-6.021648135e-10
5.558451447e-11
1.807084838e-10
-1.574959511e-11
-1.452447036e-13
2.858140559e-13
2.014806616e-13
-2.292988929e-14
-5.948117035e-13
2.947366268e-12
1.499383008e-12
-3.797867411e-12
-4.213638906e-12
2.679306444e-10
-1.869217564e-12
-1.73231211e-10
2.537992045e-10
5.294525518e-10
-6.708600746e-10
-5.359425356e-10
5.769998222e-10
4.262173709e-10
-5.064308206e-10
-2.838350933e-10
4.829103072e-10
5.485895961e-10
-4.970941337e-10
-2.198444871e-10
4.191202682e-10
1.489646722e-10
-2.629069854e-10
-8.484735453e-11
1.842404348e-10
2.007386223e-11
-1.160917297e-10
-2.249679141e-11
5.660484058e-11
4.272551328e-12
-2.414708593e-11
-4.52354915e-12
1.266853865e-11
4.634609085e-12
-1.193485829e-11
-2.438479837e-12
1.04687147e-11
3.19840462e-12
-9.059047712e-12
-1.704469309e-12
7.796998028e-12
2.667684186e-12
-6.944292269e-12
-2.62081547e-12
7.107985774e-12
3.939892872e-12
-7.886504314e-12
-3.767767155e-12
9.782573995e-12
3.373041636e-12
-1.115155931e-11
-1.129853816e-12
1.266969849e-11
1.057364088e-11
-1.928591767e-11
-2.555822687e-12
3.543361661e-11
1.591154585e-11
-7.95116896e-11
-7.611000577e-12
1.783299182e-10
1.31068961e-11
-3.621074102e-10
-1.044619725e-11
4.796454896e-10
-7.444342192e-11
1.713134168e-10
6.490459828e-10
-5.311653763e-10
-1.583793009e-13
1.078517477e-12
-5.626607191e-12
6.217874731e-12
-3.656088649e-13
1.317866442e-12
-7.53295672e-12
-1.296274844e-12
9.789087872e-12
2.02035808e-12
-1.329232337e-11
-5.334123176e-12
1.861497872e-11
9.74072311e-12
-3.104702251e-11
-1.371395638e-11
5.722123963e-11
3.434717221e-11
-1.212948732e-10
-1.192442244e-11
2.88994649e-10
1.375815412e-10
-5.739528866e-10
-2.467949164e-11
6.764040149e-10
2.359745643e-10
-7.084436458e-10
-1.476049271e-10
1.064168477e-09
2.987071826e-10
-2.169568361e-09
-1.103391909e-09
4.249690588e-09
1.071362444e-09
-6.486172421e-09
-1.660315887e-09
7.667697961e-09
1.910641322e-09
-7.181022126e-09
-1.153657447e-09
5.198429394e-09
1.353148447e-09
-2.654717199e-09
-1.891781593e-10
7.31697711e-10
2.240557113e-10
-1.600504634e-11
-2.762385399e-13
4.227502033e-11
1.703904697e-11
-8.94445508e-11
-6.86053385e-13
1.682338073e-10
1.213888414e-10
-3.10995801e-10
8.907182194e-12
4.512485761e-10
7.1215511e-10
1.819199135e-09
-6.230293103e-11
-9.962863861e-09
1.740533436e-09
2.132563285e-09
-1.799124125e-11
-7.203339751e-10
1.32348707e-10
3.648815746e-10
-1.068472896e-11
-2.347885695e-10
6.456349588e-11
2.132679653e-10
-4.887650366e-11
-2.878536388e-10
1.033192281e-10
4.031431226e-10
-1.424408276e-11
-5.386896309e-10
1.66561072e-10
7.161812172e-10
-2.741914028e-12
-9.685433459e-10
2.974714221e-10
1.355693111e-09
-2.43693374e-12
-1.997030303e-09
6.385328548e-10
2.925170672e-09
-9.923992031e-13
-3.271641607e-09
5.518555649e-10
1.527919958e-09
5.810193243e-12
-2.011916647e-10
1.526132082e-11
1.782549451e-11
5.118434946e-13
-2.890371891e-12
8.286010761e-13
1.630703293e-12
8.462734073e-14
-1.255335168e-12
5.255682797e-13
1.027605502e-12
2.563168095e-12
-1.55129727e-12
4.691761985e-12
7.864611487e-12
9.828831388e-12
-1.674648932e-11
3.790726582e-12
2.1174304e-11
5.7532406e-12
-2.062065038e-11
1.683449019e-14
1.710845586e-11
-1.560620933e-10
2.931823052e-11
2.236115521e-10
-7.799992585e-11
-3.526596932e-12
1.287304279e-11
-1.118379722e-10
1.668654179e-10
-7.000983876e-12
4.304931147e-11
-2.536735617e-10
-1.47937607e-11
4.243818299e-10
1.188822378e-10
-9.236307129e-10
-5.500791588e-11
2.652117279e-09
6.145298314e-10
-6.517477584e-09
-2.619146208e-10
1.087906748e-08
7.12070218e-10
-1.359750607e-08
-2.97322412e-10
1.338537594e-08
-1.049172847e-10
-1.090847618e-08
-1.839786045e-10
7.770225798e-09
-1.330507929e-10
-5.09439247e-09
-1.965059999e-10
3.279284859e-09
-9.585107918e-11
-2.217042508e-09
-5.198644683e-10
1.703016348e-09
-2.207959473e-12
-1.570475725e-09
-1.163872986e-09
1.754180236e-09
5.445212196e-10
-1.952363662e-09
-1.106588959e-09
1.964743901e-09
1.101161316e-09
-1.832033766e-09
-4.889527004e-10
1.719706291e-09
2.224121268e-09
-1.692208934e-09
-3.456088333e-10
1.448512783e-09
2.526638926e-09
-8.404414724e-10
-5.538975158e-11
2.283071002e-10
2.33102679e-09
1.157123977e-10
-6.475419792e-10
-2.888840984e-11
4.26575252e-10
7.91313717e-10
-3.805753835e-09
-3.431742112e-09
2.139834857e-09
3.08639099e-09
-5.340715535e-10
-1.822451326e-09
7.717974878e-10
1.261320276e-09
-2.638544935e-10
-1.034680037e-09
4.947035419e-10
9.793839113e-10
-2.797722897e-10
-1.061213386e-09
5.347959134e-10
1.281074968e-09
-4.265129858e-10
-1.66241096e-09
8.050182071e-10
2.252204799e-09
-7.325048318e-10
-3.104614287e-09
1.340369401e-09
4.229833435e-09
-1.209958213e-09
-5.489000746e-09
1.905531678e-09
6.470063903e-09
-1.100648803e-09
-6.574965215e-09
1.589679993e-09
5.55101685e-09
-4.2209934e-10
-3.917999535e-09
6.545195835e-10
2.444779134e-09
-1.340144028e-10
-1.416194687e-09
1.913345435e-10
7.527062571e-10
-2.810374571e-11
-3.434830225e-10
3.563906818e-11
1.272964058e-10
-8.873271796e-12
-4.601222933e-11
9.989432894e-12
3.502535193e-11
-2.760717174e-11
-5.911809537e-11
3.052335433e-11
1.085555189e-10
-6.44355488e-11
-1.814018564e-10
6.834881311e-11
2.527204082e-10
-2.396435656e-11
9.147537136e-11
3.292139338e-10
-2.912775948e-10
-5.369048941e-11
-7.463936369e-09
8.160939849e-09
-1.428246441e-10
1.868879972e-09
-7.930290922e-09
-3.698029457e-10
6.185851356e-09
1.447059243e-09
-4.173448556e-09
-6.478574886e-10
2.680519805e-09
6.705124223e-10
-1.798610611e-09
-5.166178396e-10
1.235868116e-09
3.136042722e-10
-7.789165436e-10
-1.143100702e-10
4.313553553e-10
1.114973217e-10
-2.655337535e-10
-1.486297573e-11
2.365974379e-10
6.322529053e-11
-2.59106269e-10
-2.231036373e-11
2.97118774e-10
8.805695786e-11
-3.447825183e-10
-1.083593681e-10
3.942120263e-10
1.484184714e-10
-4.292566931e-10
-2.86172513e-10
4.369856744e-10
1.99783536e-10
-5.210995434e-10
-9.769060935e-10
1.067255157e-09
6.93282222e-10
-2.438052739e-09
-5.090623851e-09
4.376754e-09
6.915285747e-09
-6.036957767e-09
-7.278882521e-09
5.983073517e-09
1.317444718e-08
-3.591284013e-09
-2.073696123e-09
7.236495663e-10
3.420312885e-10
-6.422358196e-11
-2.061504792e-10
6.320633585e-12
6.008516522e-10
3.247666637e-10
-8.375473374e-10
-7.438246084e-10
8.149201741e-10
9.466304875e-10
-7.837207678e-10
-1.073841111e-09
7.871088149e-10
1.208253704e-09
-7.06217007e-10
-1.384648227e-09
9.374575655e-10
1.664514525e-09
-8.724087784e-10
-2.121869478e-09
1.35624903e-09
2.847924713e-09
-1.374515743e-09
-3.941608745e-09
2.155387827e-09
5.413053526e-09
-2.168038844e-09
-7.012707672e-09
2.801112728e-09
8.177058648e-09
-2.534554023e-09
-8.277990367e-09
2.232278439e-09
7.072083568e-09
-1.639340202e-09
-5.01282044e-09
9.482242175e-10
3.0201907e-09
-5.715612191e-10
-1.663737983e-09
2.664337485e-10
8.762753675e-10
-1.443514903e-10
-4.32769004e-10
5.696579873e-11
1.942078534e-10
-2.374215622e-11
-7.901287591e-11
9.160798156e-12
3.185612895e-11
-8.032925566e-12
-1.866696225e-11
6.582664012e-12
2.291887434e-11
-2.510037509e-11
-4.068319228e-11
2.137380173e-11
7.399090341e-11
-6.057448482e-11
-1.240963037e-10
5.385067965e-11
1.882141673e-10
-1.010891865e-10
3.313805881e-11
4.576246247e-10
-2.649738862e-10
1.314512166e-08
-3.40824449e-09
3.55458593e-09
-1.145983448e-08
-2.098664025e-09
7.993091525e-09
2.143026458e-09
-4.668501806e-09
-6.723198774e-10
2.49044578e-09
7.061955318e-10
-1.374222928e-09
-2.567516008e-10
8.542606835e-10
2.797868985e-10
-5.921836927e-10
-1.292077129e-10
4.449996181e-10
1.643482996e-10
-3.67801495e-10
-1.036622852e-10
3.348105642e-10
1.394268903e-10
-3.22299748e-10
-1.275186514e-10
3.158245111e-10
1.565067843e-10
-3.088570676e-10
-1.736524442e-10
2.973907382e-10
1.893449563e-10
-2.784960527e-10
-1.532265083e-10
2.513351143e-10
1.041413477e-10
-1.754810225e-10
-4.001202942e-10
2.475752396e-10
1.877822417e-10
-8.008859723e-10
-6.465273266e-09
2.539217314e-09
4.345650375e-09
-5.561319181e-09
-1.723371263e-08
7.301678502e-09
1.702938377e-08
-4.839856658e-09
-1.792696362e-10
2.062852389e-10
2.405462681e-10
-2.073836451e-10
-1.768512559e-09
4.903366444e-11
3.278122642e-09
1.082870494e-09
-1.902037078e-09
-1.89696235e-09
3.541526737e-09
2.009398841e-09
-1.167072513e-09
-1.836912191e-09
-1.449155619e-09
2.194475645e-09
-1.312262807e-09
-2.082945991e-09