/*--------------------------------*- C++ -*----------------------------------*\
| =========                 |                                                 |
| \\      /  F ield         | OpenFOAM: The Open Source CFD Toolbox           |
|  \\    /   O peration     | Version:  2.1.x                                 |
|   \\  /    A nd           | Web:      www.OpenFOAM.org                      |
|    \\/     M anipulation  |                                                 |
\*---------------------------------------------------------------------------*/
FoamFile
{
    version     2.0;
    format      ascii;
    class       volVectorField;
    location    "0.5";
    object      Uf;
}
// * * * * * * * * * * * * * * * * * * * * * * * * * * * * * * * * * * * * * //

dimensions      [0 1 -1 0 0 0 0];

internalField   nonuniform List<vector> 
2828
(
(-1.17579514 0 0.9151704342)
(-1.044596514 0 0.9179607404)
(-0.5041089002 0 0.3299105944)
(-0.2325970947 0 0.01054184178)
(-0.6501716803 0 0.08019196928)
(-0.5072709472 0 -0.2159016739)
(-0.4649942931 0 -0.1642424726)
(-0.2590067678 0 -0.06322183298)
(-1.064267222 0 0.661430072)
(-1.029190291 0 0.8993475724)
(-1.043339915 0 1.072083798)
(-0.7500062448 0 0.7355677468)
(-0.275494916 0 0.08269656567)
(-0.8554956207 0 0.116142134)
(-0.884096656 0 0.1699600456)
(-0.9016717063 0 0.2435330009)
(-1.142239593 0 0.3757003957)
(-0.3541460523 0 -0.2539803322)
(-0.4519367156 0 -0.2571261698)
(-0.5203425424 0 -0.2258341669)
(-0.5516654642 0 -0.184421989)
(-0.4747755598 0 -0.1014811581)
(-0.8355897306 0 0.6058485397)
(-0.6632692467 0 0.7026216214)
(-0.7315587599 0 0.8365204619)
(-0.6245986163 0 0.6763446689)
(-0.3001888419 0 0.1056514238)
(-0.9389237252 0 0.1258041129)
(-1.045833855 0 0.1642991127)
(-1.142188898 0 0.2635613171)
(-1.220611201 0 0.3811988236)
(-1.205982131 0 0.5048575356)
(-1.053292536 0 0.5699259074)
(-0.3008543931 0 -0.2970196898)
(-0.3839379365 0 -0.3121621501)
(-0.4533346372 0 -0.2900264885)
(-0.5920941167 0 -0.2837532201)
(-0.7585708006 0 -0.2636240264)
(-0.7923781486 0 -0.1965622585)
(0.104090403 0 0.43551715)
(-0.3407612196 0 0.1947607649)
(-0.373915823 0 0.04622355217)
(-0.2717529448 0 0.03377252966)
(-0.2839758394 0 0.06208090203)
(-0.8907606112 0 0.09580127907)
(-0.9767325655 0 0.1117748329)
(-1.084865915 0 0.2400329247)
(-1.142572757 0 0.3791977142)
(-1.103142281 0 0.5037088032)
(-1.026729521 0 0.5932360491)
(-0.8055309565 0 0.5700846021)
(-0.637316693 0 0.5193188428)
(-0.3357140996 0 -0.4016278331)
(-0.3519037791 0 -0.4013603204)
(-0.3851601866 0 -0.3751229267)
(-0.503205664 0 -0.387796889)
(-0.7653367802 0 -0.4313563784)
(-1.070809726 0 -0.4109421614)
(-1.141524075 0 -0.2845787302)
(-0.3782800124 0 0.08107716153)
(-0.4627786342 0 0.1701016029)
(-0.476716896 0 0.1074957214)
(-0.2728384408 0 0.02413668487)
(-0.3038526061 0 0.06180609195)
(-0.889005976 0 0.04962970953)
(-0.8825684637 0 0.05327346448)
(-1.167526961 0 0.2770696854)
(-1.185404268 0 0.4434352198)
(-1.043428264 0 0.5388808163)
(-0.9377569451 0 0.6011746509)
(-0.8569620016 0 0.6077329236)
(-0.7984771319 0 0.5709730008)
(-0.6529064664 0 0.4923000153)
(-0.3375322839 0 -0.4535507449)
(-0.3369212513 0 -0.4778089756)
(-0.3353361509 0 -0.459110511)
(-0.3974228277 0 -0.4816730963)
(-0.5966829224 0 -0.5810220274)
(-0.9786990233 0 -0.6867726877)
(-1.432681575 0 -0.6410093906)
(-1.35384892 0 -0.3368132805)
(-0.4001129175 0 0.1532721281)
(-0.4489093583 0 0.2175886501)
(-0.4755745398 0 0.1073023979)
(-0.2776361064 0 0.008214157782)
(-0.3633265874 0 0.07086228475)
(-0.903424743 0 -0.00872666742)
(-0.8953829844 0 -0.03681213655)
(-1.466197939 0 0.3913715591)
(-1.304851007 0 0.5662578054)
(-1.023640027 0 0.6088187013)
(-0.854393964 0 0.6033356032)
(-0.8973410808 0 0.5980730423)
(-0.9938552765 0 0.6163728793)
(-0.9114128789 0 0.5946593879)
(-0.5722674464 0 0.4238496766)
(-0.2911018538 0 -0.3768165497)
(-0.3032472975 0 -0.4359188293)
(-0.2956518489 0 -0.4641634343)
(-0.295174918 0 -0.4820903608)
(-0.3627616317 0 -0.5646497497)
(-0.6046161727 0 -0.7936405982)
(-1.103460312 0 -1.055396822)
(-1.710115791 0 -0.9891074126)
(-1.745327992 0 -0.4038015956)
(-0.4644756065 0 0.2965951967)
(-0.4085469086 0 0.2289685704)
(-0.4297874232 0 0.06430703282)
(-0.2856290243 0 -0.03032678826)
(-0.4751750758 0 0.09935039941)
(-0.8604592999 0 -0.04345569277)
(-1.043586482 0 -0.2158078384)
(-1.907569296 0 0.597660925)
(-1.433099718 0 0.7453013846)
(-1.000729325 0 0.6951981624)
(-0.7874759311 0 0.5907979565)
(-0.8972107455 0 0.5510763975)
(-1.037202154 0 0.6045005992)
(-1.036427891 0 0.6589337293)
(-0.7442718731 0 0.540776531)
(-0.2622990598 0 -0.3551867518)
(-0.2773535783 0 -0.3657211382)
(-0.2797321343 0 -0.3852362118)
(-0.2683780369 0 -0.4119828666)
(-0.2523212262 0 -0.4162808984)
(-0.2578805976 0 -0.4401349523)
(-0.379935069 0 -0.6856426949)
(-0.9365177558 0 -1.401847353)
(-1.72692411 0 -1.606084976)
(-2.622564576 0 -0.7686534955)
(-0.5316290487 0 0.4980999632)
(-0.3743747173 0 0.1605481802)
(-0.3783545215 0 -0.006605946971)
(-0.304850938 0 -0.07554719382)
(-0.5423698077 0 0.1153158109)
(-0.7786005732 0 -0.02747541712)
(-1.307342337 0 -0.4923211368)
(-2.169320025 0 0.8543888528)
(-1.47107688 0 0.9509616194)
(-0.9419179954 0 0.7723233707)
(-0.744097297 0 0.5613204854)
(-0.8881899713 0 0.5039179866)
(-0.9707273006 0 0.5691920151)
(-0.9792866104 0 0.6531133385)
(-0.7757874102 0 0.5896783152)
(-0.3457018891 0 0.3526476844)
(-0.2411312813 0 -0.3499573283)
(-0.2659103259 0 -0.3894504011)
(-0.2911799192 0 -0.4044970222)
(-0.2836697483 0 -0.3704887838)
(-0.2451826224 0 -0.301600816)
(-0.221973047 0 -0.2653945009)
(-0.1972651494 0 -0.2835458206)
(-0.3330757659 0 -0.7720143311)
(-0.8460948237 0 -2.211844358)
(-1.460287291 0 -1.508085694)
(-0.4782596619 0 0.2003222482)
(-0.3342149691 0 0.02485076659)
(-0.3524718531 0 -0.03187908966)
(-0.3277667265 0 -0.1020737126)
(-0.5743180098 0 0.1079611945)
(-0.7163036652 0 0.03415746357)
(-1.51366428 0 -0.6715139272)
(-1.794624094 0 0.9793154755)
(-1.271706382 0 1.060355032)
(-0.7777289577 0 0.7635536553)
(-0.7532488922 0 0.5039490275)
(-0.9705548581 0 0.5276556572)
(-0.9550814964 0 0.6015624696)
(-0.8602138837 0 0.6271327717)
(-0.7109989145 0 0.5854060121)
(-0.3880585476 0 0.4090874609)
(-0.2561518949 0 0.3523825743)
(-0.3011804443 0 -0.47758868)
(-0.2249971726 0 -0.3432590127)
(-0.2299299507 0 -0.3743413804)
(-0.2582686315 0 -0.4206782729)
(-0.2563609454 0 -0.3944855789)
(-0.2152801837 0 -0.2836780741)
(-0.1819970865 0 -0.2542624898)
(-0.09933220972 0 -0.2599586571)
(0.06444048943 0 -0.2854509087)
(0.21082574 0 -0.6759970697)
(0.6494038472 0 -0.4313772012)
(-0.4449494838 0 -0.1532730989)
(-0.3023662369 0 -0.01626528313)
(-0.3430196758 0 -0.02361067616)
(-0.3496239165 0 -0.08224055696)
(-0.8479525951 0 -0.09753547653)
(-0.7621674368 0 0.1199174613)
(-1.000244904 0 0.1862429521)
(-0.5331709968 0 0.2788470482)
(-0.2722287157 0 0.2624678654)
(-0.2189819273 0 0.2551066708)
(-0.7832103153 0 0.4031338124)
(-1.114559727 0 0.6495415468)
(-0.9999329572 0 0.7116793153)
(-0.7814404856 0 0.6403061263)
(-0.5739923775 0 0.5326236576)
(-0.3425302741 0 0.4169826707)
(-0.3083237864 0 0.4847576064)
(-0.417560756 0 -1.138479479)
(-0.2244209218 0 -0.4215712475)
(-0.1725348985 0 -0.284538459)
(-0.1591981999 0 -0.3062227283)
(-0.1321420723 0 -0.3092867254)
(-0.150149863 0 -0.2745303171)
(-0.1362127535 0 -0.269204137)
(0.2277401753 0 -0.5477888194)
(0.694800996 0 -1.127159486)
(0.7934171138 0 -1.156698217)
(0.4884077234 0 -0.2401740017)
(-0.5267285354 0 -0.3066925916)
(-0.2742211751 0 -0.0167504448)
(-0.372261903 0 -0.01756992781)
(-0.9333203643 0 -0.255390265)
(-1.248920145 0 -0.3450978005)
(-1.104815852 0 0.1532227003)
(-1.103397726 0 0.2220234736)
(-0.451874154 0 0.2212047618)
(-0.2410955221 0 0.2419236532)
(-0.1999892635 0 0.249553756)
(-0.8557712828 0 0.4270223321)
(-1.313899951 0 0.9102186221)
(-1.1035068 0 0.9338641778)
(-0.7275379596 0 0.6954119797)
(-0.4124159389 0 0.4764441342)
(-0.384414425 0 0.5847398188)
(-0.4645959862 0 0.7850070558)
(0.0568101878 0 -0.3195769354)
(-0.0695946597 0 -0.2798152919)
(-0.1393813908 0 -0.231438951)
(-0.1025194162 0 -0.2675095932)
(-0.09950715346 0 -0.2659679611)
(-0.130857052 0 -0.2430043077)
(-0.2363230689 0 -0.3025116851)
(-0.3386923445 0 -0.4098337861)
(-0.1325626606 0 -0.5016904549)
(0.5739296972 0 -0.8255539638)
(-0.2684471352 0 -0.2365668235)
(-0.2770832679 0 -0.2282240617)
(-0.2449852424 0 -0.003010829766)
(-0.455716295 0 -0.05140647543)
(-1.246807658 0 -0.3950491143)
(-1.370326742 0 -0.3942587831)
(-1.710315268 0 0.2262266319)
(-1.306998391 0 0.2950657942)
(-0.4053666519 0 0.2622726313)
(-0.2128736499 0 0.2588376329)
(-0.2039230517 0 0.2616690863)
(-1.203954171 0 0.7679957734)
(-1.398745168 0 1.333032936)
(-1.2089257 0 1.324820786)
(-0.5357493892 0 0.6954713853)
(-0.3054890569 0 0.5313960863)
(-0.5505310591 0 0.9429225136)
(-0.5434938467 0 1.022429474)
(-0.6364681798 0 1.372947622)
(-0.07912089689 0 -0.4115591554)
(-0.1338046708 0 -0.412137097)
(-0.1908675461 0 -0.3674992548)
(-0.2234425474 0 -0.3456503145)
(-0.2353826516 0 -0.3432114138)
(-0.2254778695 0 -0.308290878)
(-0.3036794511 0 -0.4084990079)
(-0.3660077092 0 -0.4769856811)
(-0.3735982485 0 -0.4570169195)
(-0.3505883578 0 -0.3954493884)
(-0.3633348717 0 -0.3594984914)
(-0.2752336176 0 -0.200839422)
(-0.4212821076 0 -0.08367693595)
(-0.5782696574 0 -0.1044495254)
(-1.243553643 0 -0.3632803284)
(-1.298101589 0 -0.3124815806)
(-2.070732102 0 0.3073670824)
(-1.428628297 0 0.3906234383)
(-0.3272620043 0 0.3368827601)
(-0.2055685912 0 0.3164255186)
(-0.3025777622 0 0.3672284816)
(-0.6188090739 0 0.6369748483)
(-0.6809218618 0 0.8639416105)
(-0.5958929609 0 0.9236549356)
(-0.5073786076 0 1.109640733)
(-0.3888111192 0 0.9627689014)
(-0.4184881778 0 0.9754689648)
(-0.4621307222 0 1.129318551)
(-0.8882648984 0 2.30379543)
(-0.0791715975 0 -0.8735091805)
(-0.08917982767 0 -0.9353019757)
(-0.1046365794 0 -0.9978992694)
(-0.1450470339 0 -0.9426233719)
(-0.2631207214 0 -0.5683508545)
(-0.2990839202 0 -0.491590151)
(-0.2895577834 0 -0.4583346051)
(-0.2789962561 0 -0.4232846491)
(-0.3060611735 0 -0.4568509778)
(-0.30734018 0 -0.4507736358)
(-0.2965027374 0 -0.436100696)
(-0.3783605514 0 -0.4519536522)
(-0.3960480345 0 -0.3334274137)
(-0.567377135 0 -0.1436609359)
(-0.5368748225 0 -0.01697857276)
(-0.9914159944 0 -0.179153539)
(-1.087079477 0 -0.0508181625)
(-1.861473328 0 0.4343362109)
(-1.268695657 0 0.5317944245)
(-0.2590383386 0 0.4639468605)
(-0.2028200203 0 0.4245854454)
(-0.572598935 0 0.6621640151)
(-0.9395126125 0 1.278423874)
(-0.8054400202 0 1.451610877)
(-0.624765212 0 1.34818095)
(-0.6099209282 0 1.783626837)
(-0.4379591327 0 1.272551763)
(-0.3167188004 0 1.16658285)
(-0.308790777 0 0.5865958175)
(-0.3368739507 0 5.712007634)
(0.09776784079 0 -0.7330604502)
(0.1877794507 0 -0.9441075913)
(0.3081536408 0 -1.116406336)
(0.352101054 0 -1.220790279)
(0.461414798 0 -1.316206766)
(0.3280542957 0 -0.3226115859)
(0.1138527655 0 -0.5346784168)
(0.05977725134 0 -0.4715148579)
(-0.1446189792 0 -0.4588197145)
(-0.1491238371 0 -0.5843008664)
(-0.1442942337 0 -0.6319128128)
(-0.1520649596 0 -0.6470456827)
(-0.5297502652 0 -0.5551541831)
(-0.690700695 0 -0.235902443)
(-0.2668930326 0 0.2806228741)
(-0.3349230452 0 0.3786257912)
(-0.7027320092 0 0.9452713379)
(-0.5894436347 0 0.780968943)
(-0.2636558359 0 0.6884703018)
(-0.2154213809 0 0.6587849771)
(-0.1782738374 0 0.5727406541)
(-0.5786646221 0 1.192676362)
(-0.5586449644 0 1.828882013)
(-0.5240659057 0 1.686868016)
(-0.4768239675 0 1.553286955)
(-0.07039657973 0 1.220983962)
(-0.1658143946 0 0.8247459201)
(-0.03273517298 0 0.8365863063)
(-0.03148300402 0 0.6884123694)
(0.5906859053 0 1.731982777)
(0.09332271271 0 -0.5456896977)
(0.07733769977 0 -0.5693411252)
(0.06196734925 0 -0.6864713644)
(0.4320607217 0 -0.5769030949)
(0.3739520855 0 -0.3736798196)
(0.09004010185 0 -0.2552847385)
(0.1576465825 0 -0.5562414232)
(0.1628674026 0 -0.6532074184)
(0.1889421066 0 -0.8064849563)
(0.2141848294 0 -0.881766118)
(0.2156864571 0 -0.8365031438)
(0.1926530113 0 -0.7056773744)
(0.6606000622 0 -1.159777162)
(0.9329391215 0 -1.614263679)
(0.127911428 0 0.1828753147)
(0.2139247197 0 -0.01999600446)
(0.7727567331 0 1.604195332)
(0.6208609996 0 2.202681818)
(0.4890548649 0 2.131257893)
(0.4184820311 0 2.028703111)
(0.3586732434 0 1.91319667)
(0.2898613251 0 1.774480663)
(0.1208288828 0 1.019651444)
(0.05480935234 0 0.2372798686)
(0.04602153023 0 0.2200421306)
(0.3371625969 0 0.6466232832)
(0.1582515503 0 0.3392681077)
(-0.002459686758 0 0.2010153004)
(-0.04524660213 0 0.3212881589)
(0.08389104122 0 0.336270029)
(0.1703350547 0 -0.6029793288)
(0.1988989853 0 -0.6600269535)
(0.2131400532 0 -0.5868121286)
(0.113710971 0 -0.6643803309)
(0.02735718258 0 -1.000301102)
(-0.05348259745 0 -1.090575686)
(-0.1144693016 0 -1.05071144)
(-0.06804350525 0 -0.9012058402)
(0.09932520187 0 -0.7353890231)
(0.2169154604 0 -0.7059528222)
(0.3722831587 0 -0.7447615426)
(0.9185285894 0 -0.797124404)
(1.158811325 0 -0.689832651)
(0.698243258 0 0.4030656674)
(0.226906388 0 0.4431321165)
(0.3104128971 0 0.4344671698)
(0.5575278829 0 0.7824432625)
(0.740523301 0 1.433153472)
(0.6736730178 0 1.660339393)
(0.6118023844 0 1.801764055)
(0.5837634672 0 1.960835706)
(0.5501712548 0 2.02024826)
(0.4883208511 0 1.855830183)
(0.4182711171 0 1.637759782)
(0.3814810134 0 1.587937262)
(0.2816820776 0 1.188969069)
(0.1775635126 0 0.7648459534)
(0.1191836075 0 0.5184877098)
(0.09396836881 0 0.3980237361)
(0.0760203955 0 0.3393633693)
(0.07883644207 0 -0.5987078313)
(0.1738475053 0 -0.930121424)
(0.2128942649 0 -1.027907568)
(0.2168407968 0 -0.9264924717)
(0.1790786044 0 -0.8810198511)
(0.1751101521 0 -1.045000403)
(0.2816816964 0 -1.516942494)
(0.4479067989 0 -1.824396155)
(0.4356046959 0 -1.226952218)
(0.2815488589 0 -0.613477923)
(0.4515327445 0 -0.7067530736)
(1.180923052 0 -0.7526294692)
(1.531418213 0 -0.6793189037)
(0.2836381573 0 -0.03245077867)
(0.5361970166 0 0.1987663543)
(0.4818405357 0 0.5333918744)
(0.6872792336 0 0.9433359681)
(0.7784091632 0 1.276462358)
(0.7745971681 0 1.52461455)
(0.7479351084 0 1.739420089)
(0.6875101706 0 1.816997968)
(0.5982773522 0 1.68927645)
(0.4932727217 0 1.405425381)
(0.4346592762 0 1.291216091)
(0.3840529752 0 1.22514488)
(0.3162275833 0 1.076020021)
(0.2449196217 0 0.8818986116)
(0.1822003481 0 0.6845775843)
(0.139667735 0 0.5373478011)
(0.1180242525 0 0.4548006403)
(0.2833141523 0 -1.238838615)
(0.3190526526 0 -1.332807719)
(0.3210013357 0 -1.231644137)
(0.3505865181 0 -1.17993452)
(0.4309296825 0 -1.270264106)
(0.5486470869 0 -1.399180863)
(0.7062250565 0 -1.479528076)
(0.8293296609 0 -1.340899655)
(0.3479728489 0 -0.5477374945)
(0.4295396602 0 -0.5805627611)
(1.107782655 0 -0.6070062704)
(1.569739365 0 -0.6446581805)
(0.5895639074 0 -0.5561365243)
(0.6929156118 0 0.1807326085)
(0.6599093376 0 0.3431703132)
(0.6035570166 0 0.5404574421)
(0.6185526473 0 0.85058542)
(0.571114239 0 0.9957314166)
(0.4282918213 0 0.9169226504)
(0.2749541 0 0.6930462575)
(0.2383655566 0 0.6086440831)
(0.2467322591 0 0.6345034103)
(0.2496797995 0 0.6602796578)
(0.2424853703 0 0.6678229184)
(0.2270775583 0 0.6555615001)
(0.2060827043 0 0.625418143)
(0.1821677612 0 0.5809857685)
(0.1593195784 0 0.5313064296)
(0.1446320586 0 0.4968742379)
(0.4007119726 0 -1.243169526)
(0.4614327485 0 -1.368635691)
(0.4834741769 0 -1.287297455)
(0.4868756606 0 -1.152462004)
(0.5153244956 0 -1.095915616)
(0.5900980105 0 -1.109976293)
(0.7197374585 0 -1.154001921)
(0.927741536 0 -1.226340803)
(0.2696960272 0 -0.3772490661)
(0.4598682783 0 -0.2915179066)
(0.5550478981 0 -0.5683581793)
(1.244623448 0 -0.5964998744)
(0.7418662169 0 -0.4647817964)
(0.764615032 0 0.174927112)
(0.6826842042 0 0.3093607078)
(-1.32278403 0 -0.9852465826)
(0.3414318311 0 0.3334792589)
(0.2954491772 0 0.3274559685)
(0.2441681954 0 0.3281441289)
(0.2001249438 0 0.3411546569)
(0.1799337879 0 0.3660065593)
(0.1767119249 0 0.3941249936)
(0.1768686371 0 0.4176188765)
(0.1762509187 0 0.4354014022)
(0.1743859828 0 0.4488136624)
(0.1714865847 0 0.4594830939)
(0.1679086178 0 0.4688593279)
(0.1643688742 0 0.4783638089)
(0.1607789308 0 0.4870848702)
(0.4840914415 0 -1.073315692)
(0.54377109 0 -1.188737303)
(0.5793160958 0 -1.203684257)
(0.5725775247 0 -1.118805937)
(0.5410472702 0 -0.9860138046)
(0.5310795074 0 -0.8782559123)
(0.5779358786 0 -0.8262604537)
(0.7119262625 0 -0.8390691687)
(1.574183151 0 -1.720999693)
(2.371450712 0 -2.413163746)
(3.019782821 0 -2.636241523)
(0.7764342767 0 -0.411995836)
(0.7465963705 0 -0.4071887638)
(0.7646961935 0 0.1048776291)
(0.4876976825 0 -0.8822309745)
(1.041556821 0 -1.031125868)
(0.3101196618 0 0.308509362)
(0.2942402627 0 0.2945034536)
(0.2715548955 0 0.310102143)
(0.2364439215 0 0.3215465956)
(0.2038082696 0 0.3335814588)
(0.1884964023 0 0.3468500577)
(0.183011336 0 0.3612472261)
(0.1799835023 0 0.379618963)
(0.1782900046 0 0.3996531083)
(0.1780554299 0 0.4192078317)
(0.1790773352 0 0.4394769953)
(0.1812753952 0 0.4628822511)
(0.556476979 0 -0.9014003253)
(0.5679360048 0 -0.9264458326)
(0.5552842357 0 -0.8993440668)
(0.5174222948 0 -0.8046620987)
(0.4972812501 0 -0.6842941185)
(0.5807454676 0 -0.6345658919)
(0.9464339815 0 -0.9639327833)
(1.790556157 0 -1.742822791)
(2.488737337 0 -2.208836695)
(3.078435491 0 -2.362567279)
(0.6454680665 0 -0.427609637)
(0.7551164253 0 -0.3756266498)
(0.7502005195 0 -0.143343584)
(0.406008098 0 0.02350203718)
(0.5395860494 0 0.09312878122)
(0.3052715562 0 0.2844634345)
(0.302917649 0 0.3072483194)
(0.2923476752 0 0.3342612261)
(0.2631419031 0 0.3559455813)
(0.2359282629 0 0.3766581423)
(0.2264353722 0 0.3906224591)
(0.2210006817 0 0.3891240047)
(0.2107775754 0 0.3778899858)
(0.2011822531 0 0.3798870249)
(0.1980129538 0 0.3971299116)
(0.1997844381 0 0.420494815)
(0.2055612426 0 0.4473695898)
(0.5739877029 0 -0.7322691377)
(0.5651936477 0 -0.679716559)
(0.5269688584 0 -0.6130443259)
(0.493640635 0 -0.5497324478)
(0.5318406299 0 -0.5455501656)
(0.6917458656 0 -0.665658802)
(1.102407173 0 -1.042675365)
(1.716686348 0 -1.532805431)
(2.271856742 0 -1.853151272)
(2.716974252 0 -1.942762303)
(0.6130519531 0 -0.3587564657)
(0.7007222032 0 -0.3124821604)
(0.734703867 0 -0.2382091314)
(0.3482077089 0 -0.05282190808)
(0.6245367406 0 0.5370915565)
(0.3458644797 0 0.3615138136)
(0.3007167393 0 0.3411493611)
(0.2853428399 0 0.3638492626)
(0.2648442549 0 0.3921231038)
(0.2568293002 0 0.421136846)
(0.265793751 0 0.4470947941)
(0.2701095199 0 0.4509358167)
(0.2533109274 0 0.4144027954)
(0.2252668282 0 0.3649921823)
(0.2126140233 0 0.3572508991)
(0.2138873398 0 0.3741159504)
(0.5092554637 0 -0.5558133747)
(0.4872398672 0 -0.494040284)
(0.4910480189 0 -0.4734869406)
(0.5812225085 0 -0.5430375578)
(0.7477889994 0 -0.6866419206)
(1.063303755 0 -0.9439694724)
(1.450003052 0 -1.212126446)
(1.720481329 0 -1.325073376)
(1.59832891 0 -1.102408146)
(0.5141615702 0 -0.2671968291)
(0.5616382388 0 -0.2286202139)
(0.5815766254 0 -0.1825262324)
(0.3412695641 0 -0.04431792612)
(0.6375357713 0 0.45449936)
(0.4421868177 0 0.4228053097)
(0.3417659462 0 0.3937381286)
(0.3014942007 0 0.3985594932)
(0.2834234131 0 0.4167795318)
(0.2852361576 0 0.4460459603)
(0.305059241 0 0.4844908391)
(0.314367332 0 0.492769284)
(0.2877923043 0 0.4344729118)
(0.2321691792 0 0.3306946159)
(0.21004786 0 0.3015764531)
(0.2138287301 0 0.3141189158)
(0.4525291696 0 -0.4632235457)
(0.4851134087 0 -0.4632943003)
(0.5270492279 0 -0.4830815978)
(0.5987804286 0 -0.5371847926)
(0.7257063784 0 -0.6349917649)
(0.8916484813 0 -0.7478046168)
(1.009890062 0 -0.798445318)
(0.9885873215 0 -0.7252468587)
(0.6872071406 0 -0.4403905999)
(0.4206115226 0 -0.1982904263)
(0.4383007585 0 -0.1663977245)
(0.4289198844 0 -0.1291953806)
(0.3048977577 0 -0.03470941609)
(0.5410919607 0 0.2443767241)
(0.4404154073 0 0.3410860225)
(0.3688424869 0 0.3603937979)
(0.3301667719 0 0.3775793819)
(0.3146162291 0 0.404235723)
(0.3217358092 0 0.4475712878)
(0.3431700672 0 0.4932736238)
(0.3408498018 0 0.4853452524)
(0.2885379027 0 0.3915414522)
(0.202733746 0 0.2552876044)
(0.1963574769 0 0.2545459815)
(0.560683208 0 -0.5051135242)
(0.5845987858 0 -0.5141350572)
(0.6043192895 0 -0.5201453667)
(0.6445428487 0 -0.5365091117)
(0.6749674031 0 -0.535287928)
(0.6447018822 0 -0.4794414628)
(0.5387509186 0 -0.3631546722)
(0.3961749329 0 -0.2172563217)
(0.3566820177 0 -0.1554922502)
(0.359064185 0 -0.1289737244)
(0.3350436375 0 -0.09564923421)
(0.27759385 0 -0.0238810328)
(0.4587120851 0 0.09634781097)
(0.3765908151 0 0.2107370398)
(0.3418574308 0 0.2689051501)
(0.328180238 0 0.3140129853)
(0.3315732739 0 0.3643955289)
(0.3480469348 0 0.4193628707)
(0.3533914244 0 0.4397001066)
(0.344904842 0 0.415636852)
(0.2398904269 0 0.4256296428)
(0.2002175377 0 0.4102586808)
(0.6631469922 0 -0.5618559721)
(0.6413957762 0 -0.5288137572)
(0.6105369509 0 -0.4821365863)
(0.5645164667 0 -0.4210712202)
(0.4975531858 0 -0.3416627096)
(0.415584155 0 -0.2498462652)
(0.3557426454 0 -0.1760340574)
(0.343415814 0 -0.1410245179)
(0.3276130762 0 -0.1118630594)
(0.2916526773 0 -0.07609888834)
(0.2810646019 0 -0.00763684816)
(0.3948342091 0 0.06194229807)
(0.3261445338 0 0.131542031)
(0.3090046563 0 0.1827591726)
(0.3040825636 0 0.2305686592)
(0.308334286 0 0.2834228155)
(0.3125978014 0 0.3162881503)
(0.3091777076 0 0.1986492794)
(0.4698096617 0 0.1974578391)
(0.5861669037 0 0.5660514053)
(0.6630073482 0 -0.4964148094)
(0.5793548005 0 -0.4065635286)
(0.4918707857 0 -0.3118735082)
(0.4074785244 0 -0.2253775552)
(0.3613632912 0 -0.1727302362)
(0.3502380648 0 -0.1382172027)
(0.3257981189 0 -0.1040363878)
(0.2752348155 0 -0.0589994902)
(0.291667798 0 0.001538689655)
(0.3515518131 0 0.04962550309)
(0.2956382195 0 0.1032112557)
(0.2827414468 0 0.1307047474)
(0.3620140138 0 0.2268635428)
(0.2397314554 0 0.1566264097)
(0.1819500332 0 0.1070656993)
(0.2986031129 0 0.01964073208)
(0.4133910986 0 0.1080674057)
(0.5790313979 0 -0.3785719999)
(0.4728321337 0 -0.2721754377)
(0.3762389809 0 -0.1902674614)
(0.3163534145 0 -0.1433047059)
(0.3218654567 0 -0.1223513215)
(0.3148267014 0 -0.0893831898)
(0.2452517048 0 -0.03805436656)
(0.2990636709 0 0.003045517395)
(0.3177460753 0 0.04142443134)
(0.2611375192 0 0.08519109025)
(0.2598030129 0 0.1122780427)
(0.9038671209 0 0.3600132339)
(0.6901968099 0 0.3468198929)
(0.1977975115 0 0.06908091257)
(0.1918859612 0 -0.08228976933)
(0.2739980144 0 -0.1031595365)
(0.3945734403 0 -0.07906486864)
(0.2126836335 0 -0.01589260547)
(0.3047747883 0 0.005601920013)
(0.2811694955 0 0.03352938196)
(0.213729498 0 0.06764401803)
(0.2284066344 0 0.09472035062)
(0.782705399 0 0.3071026626)
(-0.3468289764 0 -0.1111821726)
(-0.198714514 0 -0.05111234568)
(-0.1824959565 0 -0.04128905477)
(-1.120688196 0 0.6608961184)
(-1.111045266 0 0.7688249008)
(-1.129740059 0 0.7765364932)
(-1.124841864 0 0.9103389093)
(-1.14143506 0 1.016848672)
(-1.162326774 0 0.9765109324)
(-1.087759954 0 1.026841394)
(-0.9297035601 0 0.8816948464)
(-0.8237479082 0 0.7043418197)
(-0.6773395069 0 0.5814154702)
(-0.3618957295 0 0.1857130855)
(-0.2455579777 0 0.01563360341)
(-0.2448583655 0 0.03831164815)
(-0.4285358674 0 0.0606919193)
(-0.3465096077 0 0.03957513655)
(-0.7139770143 0 0.09442843945)
(-0.8433987076 0 0.1451047252)
(-0.7479168049 0 0.1604676979)
(-0.72379212 0 0.1708327055)
(-0.8148463193 0 0.2183153348)
(-0.4574292936 0 -0.2533161367)
(-0.4932063771 0 -0.2425606266)
(-0.5105337721 0 -0.2199979781)
(-0.5156544826 0 -0.1952962182)
(-0.4990627973 0 -0.1905573496)
(-0.4979699475 0 -0.167801947)
(-0.449220311 0 -0.1343618233)
(-0.3809066759 0 -0.1218251545)
(-1.072803053 0 0.2638978451)
(-1.157974337 0 0.3239875851)
(-1.054772852 0 0.3205303194)
(-1.209924265 0 0.3850666415)
(-1.215238976 0 0.4488120636)
(-1.184015931 0 0.4326810622)
(-1.195626478 0 0.50413086)
(-1.149645519 0 0.5381606658)
(-0.3131778386 0 -0.2605953541)
(-0.3676742015 0 -0.2800390842)
(-0.4196070275 0 -0.2808904637)
(-0.4001003297 0 -0.2614792833)
(-1.060081213 0 0.5853720286)
(-0.9413037035 0 0.5799324776)
(-0.9559275329 0 0.5674437292)
(-0.8108314571 0 0.5550226196)
(-0.3087273626 0 -0.3473744232)
(-0.3201946425 0 -0.3491776164)
(-0.2861161368 0 -0.2909863115)
(-0.3424350059 0 -0.3539234472)
(-0.3637474944 0 -0.3502779401)
(-0.340404923 0 -0.3017754819)
(-0.8382869489 0 0.5964900596)
(-0.7575569576 0 0.569082534)
(-0.6986698761 0 0.5408944996)
(-0.6819493648 0 0.536524479)
(-0.634046035 0 0.5083434997)
(-0.3393068545 0 -0.4347479217)
(-0.3441240868 0 -0.4440187315)
(-0.3307636113 0 -0.4016639136)
(-0.7636650722 0 0.5332286859)
(-0.6387651406 0 0.4637251129)
(-0.3069367213 0 -0.3989043715)
(-0.3161255947 0 -0.4234313635)
(-0.3299075899 0 -0.4320274123)
(-0.6623952949 0 0.481576106)
(-0.470019705 0 0.3881919348)
(-0.2759395619 0 -0.3530535268)
(-0.2810075695 0 -0.3597281295)
(-0.2851609361 0 -0.38328981)
(-0.2991592059 0 -0.4071688853)
(-0.7705114586 0 0.5704771585)
(-0.5096882703 0 0.4354712206)
(-0.5032239192 0 0.4191269617)
(-0.3146346769 0 0.3327343622)
(-0.2524679323 0 -0.3549615861)
(-0.2629482113 0 -0.368821139)
(-0.269451371 0 -0.35997224)
(-0.3838727941 0 0.389959735)
(-0.267573511 0 0.3216322924)
(-0.2506741608 0 0.2992907392)
(-0.2403601565 0 -0.3522672732)
(-0.2401102139 0 -0.3460231961)
(-0.270283392 0 0.3958523573)
(-0.3751477326 0 -0.7314926838)
(-0.3121435499 0 -0.538334429)
(-0.266148058 0 -0.3992187227)
(-0.3865347554 0 0.6330532335)
(-0.4265622612 0 0.7277628184)
(-0.3504779143 0 0.5722879866)
(0.2342382639 0 -0.6212754303)
(0.257470624 0 -0.6502707653)
(0.2057317413 0 -0.5494454329)
(-0.3231949217 0 -0.8292740688)
(-0.5259748507 0 0.9232208881)
(-0.5440855135 0 1.012984733)
(-0.4894431649 0 0.8637213425)
(-0.5649439328 0 1.106229117)
(-0.006787696345 0 -0.2621817385)
(0.06389355345 0 -0.3108748925)
(-0.7554196649 0 1.77486869)
(-0.07747280442 0 -0.592776619)
(-0.0800911089 0 -0.5819395318)
(-0.0532956293 0 -0.3778836128)
(-0.9449702982 0 3.478298801)
(-0.8595050554 0 3.640690038)
(0.150689648 0 -0.928673465)
(0.147649326 0 -0.9951041145)
(-0.08360216137 0 -0.8993361599)
(0.8241208253 0 2.630111162)
(0.7527282933 0 2.490465581)
(-0.3030725957 0 5.509301741)
(0.1419390867 0 -0.7458281266)
(0.1754744787 0 -0.7861547204)
(0.1275938959 0 -0.8277476377)
(0.3352689601 0 1.228247178)
(0.3344582759 0 1.258270177)
(0.5752451417 0 1.733783588)
(0.1393561039 0 -0.6240576886)
(0.1497585274 0 -0.6664062453)
(0.0860748215 0 -0.5557178736)
(0.009922057435 0 0.1665608718)
(0.02922113364 0 0.1605468389)
(0.1114115033 0 0.3731202368)
(0.04686711442 0 -0.4358869621)
(0.1220242634 0 -0.4601619135)
(0.1833922669 0 -0.634699088)
(0.1020884791 0 0.4088489912)
(0.09599171291 0 0.3833192532)
(0.05980122254 0 0.2840649716)
(0.1819866325 0 -1.006623883)
(0.1240709607 0 -0.7278397531)
(0.135184712 0 0.4905698943)
(0.1128648866 0 0.4375374007)
(0.3146834651 0 -1.208330933)
(0.2539153501 0 -1.147730971)
(0.1523119597 0 0.4933969577)
(0.3736767861 0 -1.198877419)
(0.4552389956 0 -1.161037142)
(0.486884682 0 -1.258361974)
(0.4359489902 0 -1.338939026)
(0.1713906445 0 0.4672463181)
(0.1734053605 0 0.4803985842)
(0.1623332452 0 0.4843679118)
(0.5075006351 0 -0.9824936288)
(0.525857958 0 -0.9887719473)
(0.5131183737 0 -1.13729189)
(0.1934948064 0 0.4602384426)
(0.193398565 0 0.4684007475)
(0.183047524 0 0.4758493147)
(0.5620032296 0 -0.8134834735)
(0.5456337744 0 -0.8821609507)
(0.2131434545 0 0.4250682501)
(0.562187683 0 -0.6809204292)
(0.559644001 0 -0.6522593554)
(0.5764825201 0 -0.7126131276)
(0.2155824378 0 0.3411237859)
(0.2175694447 0 0.3529974529)
(0.2168423616 0 0.3820918389)
(0.5214002652 0 -0.5908059907)
(0.4672078609 0 -0.4970288939)
(0.474280275 0 -0.4853891608)
(0.5037058462 0 -0.5283736209)
(0.205162543 0 0.2788537994)
(0.2090006208 0 0.2863613248)
(0.2117498372 0 0.3059170857)
(0.4918931657 0 -0.4659303754)
(0.4651260921 0 -0.4586781131)
(0.1751459675 0 0.2414796065)
(0.2022473339 0 0.2676809093)
(0.6201592317 0 -0.5411837276)
(0.5817847708 0 -0.5166932875)
(0.3420141672 0 0.5672248473)
(0.2014195896 0 0.3733490335)
(0.6910490325 0 -0.5662135386)
(0.6615164101 0 -0.5523456919)
(0.690276669 0 -0.5533890285)
(0.6726779365 0 -0.5308484566)
(0.627993593 0 -0.5078574501)
(0.4625964598 0 0.1292909807)
(0.6117725748 0 0.3513704704)
(0.579773053 0 0.4076307984)
(0.6205968016 0 0.4856795775)
(0.5228380195 0 0.6207043761)
(0.6912016272 0 -0.5326785691)
(0.6643700611 0 -0.4858008509)
(0.6335543769 0 -0.4456270665)
(0.6186818213 0 -0.4503054942)
(0.3250593777 0 0.01352618206)
(0.308929016 0 0.0745069714)
(0.3091226571 0 0.04305001325)
(0.5292914129 0 -0.3256494179)
(0.4523008309 0 -0.2494676095)
(0.3984977106 0 -0.202938981)
(0.4230978314 0 -0.2274801059)
(0.341692368 0 -0.1660908404)
(0.2847784269 0 -0.1313433457)
(0.3387851058 0 -0.1635162577)
(0.8570686499 0 0.3352701692)
(0.8766178366 0 0.3913751826)
(0.8613231113 0 0.3960270605)
(0.7387942474 0 0.3561663693)
(0.4009650426 0 0.1932465071)
(0.332342517 0 0.1507467656)
(0.2084081829 0 0.01746451433)
(0.2476005267 0 -0.1077685036)
(0.2172376888 0 -0.09367197011)
(0.3942813028 0 -0.1015816581)
(0.3516986971 0 -0.1006018764)
(0.488583792 0 -0.08180871431)
(0.3320755183 0 0.07482405007)
(0.2878929901 0 0.03621949061)
(0.2013058874 0 -0.005432759398)
(0.2465963172 0 0.003878675683)
(0.2483067736 0 -0.0009730805115)
(0.3047461273 0 0.008019848418)
(0.3051838118 0 0.0157988988)
(0.3155702688 0 0.01815584398)
(0.2669534626 0 0.03079533152)
(0.2286115224 0 0.04654625638)
(0.2413760177 0 0.05080874927)
(0.2096963808 0 0.06221770483)
(0.2194937285 0 0.08411265728)
(0.3400509653 0 0.09982822646)
(-0.3568314036 0 -0.08195506605)
(-0.4204621788 0 -0.02319649474)
(-0.2030068544 0 -0.04081152758)
(-0.9439792228 0 0.6125205457)
(-0.9105403903 0 0.771180539)
(-1.039538355 0 0.7913009432)
(-0.8793426992 0 0.8461239804)
(-0.8913688061 0 0.9262942615)
(-1.046638151 0 1.006654824)
(-0.9153640755 0 1.013803604)
(-0.8781025618 0 0.9930340642)
(-0.9481996688 0 0.9929124087)
(-0.7281676767 0 0.7732092779)
(-0.4970677453 0 0.4213670728)
(-0.4737564748 0 0.3585144958)
(-0.3031859364 0 0.1164269663)
(-0.6359031641 0 0.09070083892)
(-0.5373722355 0 0.07687876099)