/*--------------------------------*- C++ -*----------------------------------*\
| =========                 |                                                 |
| \\      /  F ield         | OpenFOAM: The Open Source CFD Toolbox           |
|  \\    /   O peration     | Version:  2.1.x                                 |
|   \\  /    A nd           | Web:      www.OpenFOAM.org                      |
|    \\/     M anipulation  |                                                 |
\*---------------------------------------------------------------------------*/
FoamFile
{
    version     2.0;
    format      ascii;
    class       surfaceScalarField;
    location    "0.3";
    object      phi;
}
// * * * * * * * * * * * * * * * * * * * * * * * * * * * * * * * * * * * * * //

dimensions      [1 1 -1 0 0 0 0];

internalField   nonuniform List<scalar> 
5536
(
5.272549959e-12
-1.641639453e-10
2.806461646e-11
-5.600971421e-11
-1.716864463e-10
7.454147073e-11
-1.100253532e-10
-3.963714646e-10
1.697695004e-10
-2.582922471e-10
-7.857942799e-10
3.783715662e-10
-5.761746818e-10
-1.773260472e-09
-2.152580052e-09
-4.752555397e-10
2.442247023e-10
-7.911763316e-10
-5.933630089e-11
5.512262579e-10
1.27237169e-10
-4.750259131e-10
-8.036567359e-11
1.452123847e-10
3.492090068e-11
-1.327401509e-10
6.341312391e-12
1.496345728e-10
-1.660224703e-11
-1.594315842e-10
2.948258985e-11
1.531634857e-10
-4.701037831e-11
-1.642170594e-10
7.016706173e-11
4.184425554e-10
-1.273861901e-10
-4.613262448e-10
2.040725939e-10
8.225437756e-10
-3.130513278e-10
-9.064786825e-10
4.620074149e-10
1.385485095e-09
-6.610764704e-10
-1.478640769e-09
9.704366586e-10
4.795207023e-09
-1.598321755e-09
-3.726316132e-09
2.885597805e-09
1.09220947e-08
-8.156858885e-09
3.754594527e-09
-4.625747568e-09
-2.630222134e-09
-4.665341262e-09
1.91242758e-09
-2.518811685e-09
-1.378142295e-09
3.787662703e-09
8.294417301e-10
-2.868353824e-09
-9.024815281e-10
1.579952649e-09
5.657212855e-10
-1.418304785e-09
-3.517168305e-10
7.104032664e-10
2.306378034e-10
-6.500754036e-10
-1.562715325e-10
4.044751232e-10
1.04421169e-10
-3.50799087e-10
-6.314989712e-11
1.065839418e-10
2.955964695e-11
-7.933095888e-11
6.200629271e-12
1.959269054e-10
-2.461711692e-11
-2.584350353e-10
4.526969115e-11
2.010636752e-10
-6.451396351e-11
-2.640379583e-10
1.041227624e-10
5.12560361e-10
-1.643009893e-10
-5.62552706e-10
2.433467091e-10
1.01626676e-09
-3.734669152e-10
-1.11718346e-09
5.663753868e-10
1.678600118e-09
-8.119652356e-10
-1.92228148e-09
1.090533012e-09
3.229651276e-09
-1.440466729e-09
-3.119940769e-09
2.032926444e-09
6.336897651e-09
-2.892480862e-09
-4.891081289e-09
3.282205222e-09
4.622375326e-09
-2.864432359e-09
-4.212260396e-09
2.391500596e-09
4.195328843e-09
-2.238496806e-09
-4.045110882e-09
2.283099562e-09
-6.650761216e-09
1.095268716e-09
-1.810525648e-09
4.952240201e-10
-5.531176078e-10
-5.406970893e-10
1.986178591e-09
8.842008692e-10
-1.574803754e-09
-1.034549081e-09
2.498331218e-09
9.596330709e-10
-2.159371383e-09
-7.099929595e-10
1.292628121e-09
4.708158207e-10
-1.19293536e-09
-3.070426014e-10
6.113005196e-10
2.089406136e-10
-5.912782869e-10
-1.44818343e-10
3.230470852e-10
9.390231314e-11
-3.22210588e-10
-5.142649122e-11
6.959170153e-11
1.90499475e-11
-8.509185598e-11
2.94789623e-12
3.442929718e-10
-4.69795762e-11
-4.496218093e-10
8.870700344e-11
3.543731257e-10
-1.16939077e-10
-4.67666753e-10
1.770142035e-10
5.993828921e-10
-2.04835122e-10
-6.078163267e-10
2.635014981e-10
1.152611105e-09
-3.779012055e-10
-1.074399599e-09
5.589900923e-10
2.103418363e-09
-8.228991193e-10
-2.087839521e-09
1.170858042e-09
3.289171983e-09
-1.569745105e-09
-3.569282486e-09
1.952423624e-09
4.143308154e-09
-2.224041571e-09
-4.356247029e-09
2.340809087e-09
4.179887625e-09
-2.432416717e-09
-5.79166949e-09
2.603817178e-09
4.321526753e-09
-2.743759724e-09
-6.960773691e-09
2.691605643e-09
9.28038128e-09
-1.382474682e-09
-1.033626948e-08
-3.904836224e-09
7.472448971e-09
-3.086558208e-09
-1.151135521e-10
2.471096831e-09
-9.929603352e-10
-2.51626022e-09
3.508125285e-10
3.045026025e-10
-3.075385313e-10
-3.369514181e-10
4.171678874e-10
3.733619965e-10
-3.376358697e-10
-4.347120168e-10
1.18265122e-09
5.678563228e-10
-8.52501847e-10
-6.906744571e-10
1.858102225e-09
7.051642965e-10
-1.595034587e-09
-5.601323814e-10
1.108423497e-09
3.982737228e-10
-1.028840369e-09
-2.802027244e-10
5.8439805e-10
2.070936367e-10
-5.834169809e-10
-1.559979933e-10
3.423502002e-10
1.106435332e-10
-3.7662311e-10
-6.922565005e-11
1.243452871e-10
3.356614645e-11
-1.910636602e-10
1.768538797e-12
5.716944858e-10
-8.91014114e-11
-7.116871096e-10
1.657444215e-10
5.808710302e-10
-1.96556973e-10
-6.607153624e-10
2.187502162e-10
5.747011338e-10
-2.060580483e-10
-5.015405091e-10
2.199056262e-10
8.934809805e-10
-2.73456408e-10
-6.753954947e-10
3.824251671e-10
1.816761097e-09
-5.865028528e-10
-1.380139696e-09
9.489427664e-10
3.644486783e-09
-1.530760855e-09
-3.269740502e-09
2.325515104e-09
5.388449938e-09
-3.221135003e-09
-6.177300163e-09
4.507324356e-09
9.898193163e-09
-6.566837028e-09
-1.391320446e-08
9.362901651e-09
1.461762596e-08
-1.219529522e-08
-2.450375492e-08
1.37828435e-08
1.154740055e-08
-1.290489408e-08
-2.419760819e-08
9.248333441e-09
4.295993168e-09
-4.989178945e-09
-9.493149975e-09
3.043759655e-09
2.015784525e-09
-4.103363324e-09
-1.454662123e-09
3.785824448e-09
-3.307051688e-09
-2.634051953e-09
2.267660041e-10
1.947141214e-10
-1.96077485e-10
-2.265688291e-10
2.790720404e-10
2.562015863e-10
-2.5127666e-10
-2.835380579e-10
3.002517252e-10
3.040688127e-10
-2.831714578e-10
-3.169803642e-10
6.023852782e-10
3.593239645e-10
-4.352664624e-10
-4.402533936e-10
1.365127313e-09
5.125753764e-10
-1.162573191e-09
-4.35246848e-10
9.463437675e-10
3.272827458e-10
-8.57013336e-10
-2.487546916e-10
5.806523314e-10
2.050182895e-10
-5.695042954e-10
-1.756028171e-10
4.190600473e-10
1.465317575e-10
-4.622960789e-10
-1.192222126e-10
2.959782182e-10
8.96679725e-11
-4.513278508e-10
-9.596079736e-12
8.777379582e-10
-1.582621897e-10
-1.089494912e-09
2.913605127e-10
6.855071153e-10
-2.729535524e-10
-6.353635518e-10
2.241963628e-10
4.060233442e-10
-1.656071667e-10
-3.064220436e-10
1.413784063e-10
4.813930794e-10
-1.547761432e-10
-3.335843523e-10
2.069290979e-10
9.490661184e-10
-3.171013688e-10
-6.344918963e-10
5.534411053e-10
2.620834447e-09
-1.062166718e-09
-2.079156052e-09
2.036882658e-09
5.837955914e-09
-3.40546904e-09
-4.871425837e-09
5.491850865e-09
1.391681265e-08
-8.632841577e-09
-1.063237567e-08
1.314380279e-08
2.769650559e-08
-1.923203015e-08
-2.225067351e-08
2.650134603e-08
3.680968777e-08
-3.315093434e-08
-3.821482005e-08
3.563200091e-08
2.112075938e-08
-3.065856854e-08
-3.336137949e-08
1.928507878e-08
4.352428845e-09
-8.672586683e-09
-8.346925102e-09
3.328591358e-09
2.504969996e-09
-1.974091589e-09
-2.135352e-09
1.838243118e-09
-1.830949466e-09
-1.917761441e-09
1.322789156e-10
-1.317622202e-10
-1.376412876e-10
1.564877215e-10
1.732625077e-10
-1.522579052e-10
-1.782741497e-10
2.230159492e-10
2.026655668e-10
-1.962100362e-10
-2.288165595e-10
2.683891571e-10
2.542315414e-10
-2.490145281e-10
-2.719265963e-10
3.374971077e-10
2.78743885e-10
-2.844598121e-10
-3.01500128e-10
9.822147246e-10
3.682914339e-10
-8.202981758e-10
-3.264202103e-10
7.616208608e-10
2.52023151e-10
-6.650241781e-10
-2.020916273e-10
5.465215181e-10
1.827620299e-10
-5.129404845e-10
-1.75738224e-10
4.964039695e-10
1.689582575e-10
-5.13840454e-10
-1.743334361e-10
6.653241775e-10
2.025769937e-10
-9.09354554e-10
-1.275262496e-10
1.367883627e-09
-1.162629028e-10
-1.678369811e-09
3.566157829e-10
5.063508049e-10
-2.592590029e-10
-3.358381539e-10
1.619556344e-10
2.144583323e-10
-9.745165666e-11
-1.384106245e-10
7.691773702e-11
2.26493766e-10
-8.261999103e-11
-1.499870768e-10
1.093530883e-10
4.369205106e-10
-1.62033463e-10
-3.081786778e-10
3.21833064e-10
1.734915697e-09
-7.268832328e-10
-1.432871402e-09
1.524712949e-09
3.951290874e-09
-2.53901994e-09
-3.139564151e-09
3.536775256e-09
7.123805637e-09
-4.682336927e-09
-4.686691306e-09
6.339105971e-09
1.423078639e-08
-9.00649042e-09
-8.300746193e-09
1.3358791e-08
2.935010181e-08
-2.005334079e-08
-1.847135058e-08
2.871760441e-08
3.711632372e-08
-3.609604362e-08
-3.155036685e-08
3.637089051e-08
1.454941861e-08
-2.679578819e-08
-1.910518294e-08
1.298230853e-08
2.145520438e-09
-4.285232853e-09
-2.581609845e-09
1.706399969e-09
1.368923781e-09
-1.045835222e-09
1.280064359e-09
-1.288869952e-09
-9.401872147e-11
-1.22315674e-10
1.247281563e-10
1.075134205e-10
-1.723977354e-10
-9.265994268e-11
1.305289205e-10
1.128489971e-10
-1.079903936e-10
-1.362461435e-10
1.706896569e-10
1.603124231e-10
-1.458467541e-10
-1.851776963e-10
2.251427984e-10
2.100991755e-10
-1.965733184e-10
-2.368986334e-10
2.520952825e-10
2.317475321e-10
-2.241442887e-10
-2.457031288e-10
6.746207963e-10
2.607587908e-10
-5.449650223e-10
-2.387112023e-10
5.737564208e-10
1.875353554e-10
-4.932462642e-10
-1.552770596e-10
4.733601233e-10
1.491772433e-10
-4.319770794e-10
-1.545956989e-10
5.167505603e-10
1.584544979e-10
-4.987044825e-10
-1.684052429e-10
1.114989983e-09
2.29606642e-10
-1.172192399e-09
-3.785910736e-10
1.89039874e-09
2.938589153e-10
-1.901896791e-09
1.762247727e-10
1.788594064e-10
-1.154166966e-10
-7.848537983e-11
5.441565283e-11
8.493557027e-11
-3.321285397e-11
-5.371994655e-11
3.327196981e-11
9.772291477e-11
-4.096310078e-11
-6.46835133e-11
5.726672778e-11
2.120901208e-10
-8.083524469e-11
-1.408158462e-10
1.886024e-10
1.098031187e-09
-4.451864407e-10
-7.761055307e-10
9.362335716e-10
2.378065531e-09
-1.557701328e-09
-1.707012497e-09
2.015164577e-09
3.142500612e-09
-2.355611731e-09
-2.139546436e-09
2.773021342e-09
4.886592951e-09
-3.459579179e-09
-3.015411415e-09
4.66190411e-09
1.058564197e-08
-6.820723628e-09
-5.969976175e-09
1.062429249e-08
2.22668814e-08
-1.641382957e-08
-1.404152276e-08
2.245351755e-08
1.937250838e-08
-2.431817401e-08
-1.634264715e-08
1.878083787e-08
3.283632837e-09
-9.063706379e-09
-3.811085318e-09
2.764774421e-09
7.611424736e-10
-1.012619234e-09
-5.462757913e-10
7.066752423e-10
3.487271735e-10
-2.382595513e-10
3.554476576e-10
-5.50302603e-10
9.181324593e-11
3.585282197e-10
-1.692376099e-09
-5.874937598e-10
3.921861872e-10
4.293662957e-10
-1.064128816e-09
-4.794306648e-11
8.356863979e-11
4.755527634e-11
-7.457776317e-11
-5.712749018e-11
1.20154177e-10
7.183578815e-11
-1.009343434e-10
-9.257713012e-11
1.653067334e-10
1.234006112e-10
-1.296685515e-10
-1.589937506e-10
2.012286199e-10
1.826059187e-10
-1.757647987e-10
-1.987391063e-10
4.332692937e-10
1.870655073e-10
-3.425964238e-10
-1.771698983e-10
4.261232839e-10
1.448862805e-10
-3.719412645e-10
-1.253903131e-10
3.918104402e-10
1.236623295e-10
-3.57103835e-10
-1.286776864e-10
4.255410804e-10
1.358933567e-10
-3.132418222e-10
-1.524470096e-10
8.792281462e-10
1.845279352e-10
-4.586627051e-10
-2.274543982e-10
2.232738484e-09
2.662246323e-10
-6.26607876e-09
-3.162224491e-11
6.453629884e-11
-1.985717826e-11
-1.131331641e-10
1.788078258e-11
3.860594094e-11
-1.422033846e-11
-3.49782164e-11
1.744082261e-11
4.586790102e-11
-2.269476628e-11
-3.7727225e-11
3.525122679e-11
9.826992401e-11
-5.04789152e-11
-7.65644964e-11
8.207205199e-11
5.100493392e-10
-1.810975874e-10
-3.082325451e-10
4.151378e-10
1.16074148e-09
-7.389775125e-10
-7.403667154e-10
9.943977751e-10
1.473354091e-09
-1.192697929e-09
-1.03121692e-09
1.400789716e-09
1.951953275e-09
-1.660726792e-09
-1.319079499e-09
2.017080092e-09
3.440859929e-09
-2.588447958e-09
-2.053311997e-09
3.650526199e-09
8.384697498e-09
-5.64146978e-09
-4.971464705e-09
8.775712036e-09
1.230988973e-08
-1.202950947e-08
-8.824492541e-09
1.265283873e-08
3.825553122e-09
-8.683625504e-09
-3.375770166e-09
3.264732002e-09
3.807169097e-10
-8.395117442e-10
-2.665238095e-10
3.454459955e-10
1.793287101e-10
-2.343215023e-10
-1.48892251e-10
1.870179993e-10
-1.272770276e-10
-1.639178919e-10
-7.878497019e-09
-1.521976183e-08
1.678007219e-08
6.964189164e-09
-9.087002564e-09
-1.170079371e-08
1.942552781e-09
4.09539912e-09
-2.087216477e-09
-1.173295639e-10
5.926309618e-11
4.756858457e-11
-4.146862467e-11
-6.356738543e-11
8.004890934e-11
8.359195322e-11
-5.707929312e-11
-1.090679231e-10
1.270702056e-10
1.366697009e-10
-1.184384896e-10
-1.507272977e-10
1.608727691e-10
1.510958057e-10
-1.623375942e-10
-1.509910192e-10
2.745873222e-10
1.573739185e-10
-2.278908319e-10
-1.379181281e-10
3.279921391e-10
1.206441937e-10
-2.904158998e-10
-1.122547388e-10
3.291207992e-10
1.077256262e-10
-3.019110132e-10
-9.377452715e-11
2.155544317e-10
6.917927147e-11
-1.44311411e-10
-4.534828389e-11
1.790291037e-10
3.139420042e-11
-5.872438364e-11
-8.072438725e-12
2.196626104e-08
-3.054718928e-12
-5.003879661e-08
-8.210222564e-11
2.965432301e-10
-2.676190988e-11
-7.230917205e-10
8.972224418e-11
4.540021656e-11
-4.715921206e-11
-7.4235011e-11
2.501826818e-11
4.105507581e-11
-2.130054731e-11
-6.661287505e-11
3.445883254e-11
6.917220175e-11
-4.6315551e-11
-8.07048972e-11
5.35428235e-11
1.713332742e-10
-7.518095747e-11
-9.962789459e-11
1.397076394e-10
4.386876317e-10
-2.546282094e-10
-2.416231882e-10
3.980228291e-10
7.329189741e-10
-5.655414368e-10
-4.997912957e-10
7.422736515e-10
9.265403572e-10
-8.942473643e-10
-6.580069638e-10
1.002730871e-09
1.28494716e-09
-1.118741657e-09
-8.77554261e-10
1.393290612e-09
3.094578516e-09
-2.091423027e-09
-2.177960748e-09
3.543887941e-09
6.361240801e-09
-5.692412906e-09
-4.74547008e-09
7.14182863e-09
2.687153143e-09
-5.725737271e-09
-1.950049734e-09
2.29517474e-09
2.093096517e-10
-5.280726161e-10
-1.843188046e-10
1.936446e-10
1.237204319e-10
-1.409789466e-10
-1.012497369e-10
1.317919239e-10
1.247260217e-10
-1.090732792e-10
1.7372482e-10
-1.410179087e-10
4.855412793e-09
3.296068286e-10
-1.508759171e-08
1.365191352e-08
5.721838597e-09
-3.963371475e-10
-8.655739773e-09
1.458457309e-09
3.298784921e-09
-4.140603013e-10
-6.353940431e-10
4.117136897e-11
1.183296722e-10
-5.029503818e-11
-8.267714644e-11
5.402116665e-11
8.161839864e-11
-6.779795886e-11
-8.961208823e-11
8.38059303e-11
1.068223691e-10
-1.766059464e-10
-1.265779848e-10
1.712372123e-10
1.477090786e-10
-2.504901407e-10
-1.651189891e-10
1.9499037e-10
1.406150091e-10
-1.843884352e-10
-1.130214712e-10
2.550976472e-10
1.064461218e-10
-2.186346594e-10
-1.041167542e-10
2.688332514e-10
9.346816588e-11
-2.272459614e-10
-6.549198349e-11
9.381601737e-11
2.969721375e-11
-5.599175187e-11
-6.115814443e-12
1.567776375e-11
7.544352225e-13
-3.612773435e-12
1.557743976e-12
7.364087154e-08
-1.641522826e-12
-6.885854482e-08
8.62839884e-10
1.442063967e-09
-1.069561379e-09
-1.861556697e-09
5.326883728e-10
1.192511445e-10
-2.232607114e-10
-1.584918443e-10
8.647645807e-11
1.468044444e-10
-5.235243161e-11
-3.592362753e-10
1.151065506e-10
1.279345261e-10
-1.311908722e-10
-2.385822273e-10
1.024069156e-10
8.306688239e-11
-8.018256878e-11
-1.055018514e-10
7.241440565e-11
1.248146105e-10
-8.245319221e-11
-9.119884793e-11
1.148657618e-10
2.535950428e-10
-1.703327223e-10
-1.340710659e-10
2.491056355e-10
4.104461959e-10
-3.522643985e-10
-2.478960418e-10
4.8280208e-10
7.003400973e-10
-6.625555466e-10
-5.401597146e-10
9.578843696e-10
1.771799521e-09
-1.503570417e-09
-1.443989921e-09
2.476946275e-09
3.585877308e-09
-3.773483575e-09
-2.58742787e-09
4.398474131e-09
1.264865775e-09
-3.106161497e-09
-7.02559004e-10
1.143577023e-09
1.661082862e-10
-3.598182682e-10
-1.509462196e-10
1.888994108e-10
9.174440578e-11
-1.480502916e-10
-9.916728574e-11
1.336782809e-10
8.273913694e-11
-7.104348136e-11
1.422625645e-10
-1.297882631e-10
-5.039392884e-11
1.232423184e-10
1.188901945e-11
-1.33883617e-10
2.824887904e-11
1.233233874e-10
-5.050950644e-11
-1.185637181e-10
2.201488618e-11
1.197046438e-10
-5.439369531e-11
-1.088984115e-10
5.662463962e-11
1.16122354e-10
-1.308483233e-10
-1.808382875e-10
2.225192414e-10
4.409197854e-10
-1.317294243e-09
-1.037127621e-09
7.503985252e-10
1.636871703e-09
-1.998784951e-09
-1.676900599e-09
6.071874491e-10
1.228656762e-09
-9.401395938e-10
-6.708631407e-10
1.956966022e-10
2.698233313e-10
-1.833863768e-10
-9.658025189e-11
1.79508095e-10
9.06202768e-11
-1.395331217e-10
-8.537664419e-11
1.806091169e-10
6.87630362e-11
-1.367149063e-10
-3.786191809e-11
2.843412239e-11
9.1056111e-12
-1.193257631e-11
-4.395579756e-13
8.716524505e-13
-2.10966072e-13
-1.549273892e-13
1.181493708e-13
3.447418676e-08
1.347790455e-09
-1.30756726e-11
1.855886839e-09
1.221457521e-09
-1.165966848e-09
-2.08009306e-11
6.08782116e-10
1.852379674e-10
-3.628781948e-10
-4.36721078e-10
2.140316931e-10
8.321845285e-10
-2.940609943e-10
-1.851827155e-09
6.854616181e-10
4.615907392e-10
-6.892790049e-10
-8.395968313e-10
4.833484067e-10
1.599735451e-10
-2.878886432e-10
-2.304669888e-10
1.609038809e-10
9.271724863e-11
-1.064443576e-10
-1.011630236e-10
9.750531538e-11
1.162593343e-10
-1.137486018e-10
-1.242269737e-10
1.478970606e-10
2.07098264e-10
-2.031991107e-10
-2.004033451e-10
2.958157778e-10
4.626164519e-10
-4.521144202e-10
-4.15784137e-10
7.117206079e-10
1.18913259e-09
-1.136950549e-09
-9.468527099e-10
1.755195711e-09
1.698396418e-09
-2.289188803e-09
-8.995767988e-10
2.016683549e-09
3.646208627e-10
-1.002462875e-09
-2.11286864e-10
4.811883016e-10
1.401359247e-10
-3.296043404e-10
-1.338125169e-10
2.953839778e-10
1.171980981e-10
-3.038967136e-10
-1.3771957e-10
3.207414293e-10
9.032645743e-11
-3.243254757e-10
-1.278147682e-10
3.057767443e-10
7.004216799e-11
-7.683444363e-11
-2.718042573e-10
1.139700765e-10
3.15452584e-11
-3.790856682e-11
-1.239939136e-10
5.08584542e-11
1.269855869e-10
-4.801237672e-11
-1.293505686e-10
5.916676763e-11
1.435033951e-10
-1.048713388e-10
-3.568653413e-10
7.699245636e-10
1.872323781e-09
-2.146448383e-09
-5.466937743e-09
3.134067893e-09
7.63595794e-09
-3.145232979e-09
-7.054955821e-09
2.282735772e-09
5.110872768e-09
-1.641490231e-09
-3.104023404e-09
8.096231291e-10
1.614162225e-09
-5.662224577e-10
-7.142562859e-10
1.559756181e-10
2.650592073e-10
-1.534362811e-10
-9.57838012e-11
1.03422189e-10
6.747052439e-11
-7.639647472e-11
-5.696640052e-11
1.030839259e-10
4.400552468e-11
-8.254195846e-11
-2.214744244e-11
4.603165636e-12
1.559559998e-12
-2.43506112e-12
-2.357102907e-14
6.934583048e-14
-1.994745677e-14
-7.616202099e-14
4.07006722e-14
2.460425245e-12
-1.110313273e-13
-5.457318886e-12
3.082106629e-12
4.503535392e-11
-8.245367523e-12
-1.42520567e-10
5.962887189e-11
2.297549477e-09
-3.192573871e-09
-8.552140905e-09
3.542582297e-09
3.460525745e-09
-3.801105946e-09
-5.371750798e-09
3.394477878e-09
1.324472597e-09
-2.552618961e-09
-1.403814047e-09
1.534844892e-09
2.733304242e-10
-7.501858605e-10
-2.099890263e-10
3.28799723e-10
1.08074696e-10
-1.70911904e-10
-1.101115419e-10
1.406726923e-10
1.296953667e-10
-1.586926971e-10
-1.357026975e-10
1.957526951e-10
1.936115952e-10
-2.469909517e-10
-1.803914072e-10
3.214799329e-10
3.670856703e-10
-4.382343648e-10
-2.957084339e-10
6.14719159e-10
6.698180389e-10
-8.352917829e-10
-3.417570417e-10
9.456398442e-10
2.980234024e-10
-7.275579879e-10
-6.395979166e-11
4.432488761e-10
1.403182467e-10
-3.259181485e-10
-6.740750228e-11
2.942657121e-10
1.37676682e-10
-3.26776351e-10
-1.272730709e-10
4.189984007e-10
1.682739221e-10
-5.61068397e-10
-2.136691441e-10
7.358749683e-10
1.835515132e-10
-9.131566511e-10
-3.009985747e-10
1.045892321e-09
7.148206314e-11
9.63533043e-11
-1.077745124e-09
3.469722015e-11
-3.181159043e-11
-1.342596228e-10
1.441478801e-10
3.8276104e-11
-3.950243355e-11
-1.453745799e-10
4.264753574e-11
1.402226692e-10
-3.519276085e-11
-1.665499287e-10
2.001679296e-10
5.712403606e-10
-1.487423695e-10
-2.764204791e-09
2.246988822e-09
6.060059689e-09
-1.107718877e-09
-6.777663924e-09
1.974134154e-09
5.49175938e-09
-7.687776514e-10
-3.820986407e-09
9.453520718e-10
2.452045049e-09
-4.098220212e-10
-1.473583233e-09
3.597787356e-10
8.230592153e-10
-1.683617469e-10
-4.383512375e-10
1.405604477e-10
2.457200077e-10
-7.465272189e-11
-1.632704526e-10
5.960336789e-11
3.116488622e-11
-3.712170396e-11
-3.458555297e-11
7.199364582e-11
3.498086149e-11
-6.52357594e-11
-2.550013044e-11
2.192650579e-12
7.522885478e-13
-2.48587063e-12
-3.724981665e-14
1.026258844e-13
-2.464663959e-14
-1.439194454e-13
6.879743345e-14
1.037192412e-11
-2.689148677e-13
-2.077894977e-11
1.110180643e-11
3.474775196e-10
-2.724649687e-11
-5.164830349e-10
4.995752626e-10
1.843955367e-08
-2.138229978e-08
-1.984943205e-08
2.755286098e-08
6.757004375e-09
-1.935533025e-08
-6.777034308e-09
1.076241456e-08
1.4941691e-09
-5.309770932e-09
-1.11201995e-09
2.333686549e-09
2.062163944e-10
-8.815696521e-10
-1.567886328e-10
3.538151137e-10
1.240141284e-10
-2.37529714e-10
-1.258309338e-10
2.39649923e-10
1.369386546e-10
-2.59890051e-10
-1.092480059e-10
2.718778716e-10
1.460038527e-10
-2.739990124e-10
-7.801574728e-11
2.746736837e-10
1.830748971e-10
-2.833007374e-10
-4.424597067e-11
2.988090343e-10
7.712232602e-11
-2.656152706e-10
-1.504157886e-11
1.935590592e-10
2.971901343e-11
-1.566339377e-10
-1.260205302e-11
1.244461233e-10
2.810854827e-11
-1.055966379e-10
-1.192763305e-11
1.187327452e-10
7.387891414e-11
-1.911046254e-10
-3.840722061e-11
3.491151739e-10
1.849727385e-10
-6.16349094e-10
-1.077216083e-10
1.025422798e-09
3.745372576e-10
-1.626773218e-09
-2.305812915e-10
2.477699504e-09
6.387126537e-10
-4.357007039e-10
4.875118977e-09
-3.599216688e-09
3.428460484e-11
-2.238131203e-11
-2.422949618e-10
2.263426173e-10
3.95384345e-11
-2.580066528e-11
-1.939942443e-10
2.742994136e-11
1.53862752e-10
-1.476482128e-11
-1.135471955e-10
1.857468598e-11
7.795421163e-11
-4.312173758e-12
-4.910674668e-11
1.539854527e-11
3.054106052e-11
-6.846550083e-13
-2.567131912e-11
2.191856658e-11
4.221717442e-11
-8.328869955e-13
-1.003439265e-10
1.001330185e-10
2.167962978e-10
6.94805172e-12
-3.467367355e-10
3.668456888e-11
3.573520783e-10
1.510260285e-10
-2.101901122e-10
-3.414294073e-12
6.754846288e-11
3.890009373e-11
-1.499397431e-11
8.951261296e-12
1.719959526e-11
-7.371498326e-13
-2.073463849e-11
5.629719597e-11
3.375746858e-11
-4.11205582e-11
-4.007056057e-11
2.956608648e-12
8.877728641e-13
-3.487184893e-12
-9.747501265e-14
2.075553111e-13
-6.11441984e-14
-3.128936625e-13
1.80975343e-13
4.416996134e-11
-9.366167523e-13
-9.905608538e-11
5.807225769e-11
6.008230752e-11
-9.010884589e-11
-7.298489388e-11
1.042197232e-10
7.819909312e-10
-1.718224834e-09
-4.308089091e-11
1.720068172e-09
2.513322313e-10
-1.046042352e-09
-4.811307698e-11
4.594947683e-10
7.486055517e-11
-1.789152928e-10
-4.960050934e-11
1.06036781e-10
1.096865212e-10
-1.112181382e-10
-8.062713805e-11
1.539519827e-10
1.164009682e-10
-1.895574959e-10
-3.211398517e-11
1.563232354e-10
3.911804901e-11
-8.784219912e-11
-1.46273882e-11
5.651307589e-11
6.087806912e-12
-3.591661061e-11
-1.127970945e-12
2.508090591e-11
2.398574147e-12
-1.821058334e-11
-3.193515613e-12
1.395514747e-11
1.365173168e-12
-1.106584885e-11
-2.295899831e-12
9.26082832e-12
2.021592002e-12
-1.127339908e-11
2.046690465e-13
1.002832899e-11
3.374099705e-12
-1.162596298e-11
1.667027453e-13
1.972691928e-11
1.420204268e-11
-4.267037444e-11
5.559331586e-13
9.254206861e-11
4.403901959e-11
-1.801898669e-10
3.193747693e-12
3.117766897e-10
9.63519346e-11
-4.918015249e-10
7.197706128e-12
7.295418501e-10
1.800228925e-10
9.284825604e-12
1.480849508e-09
-1.045474858e-09
-1.009128517e-11
2.531798738e-11
-1.396144215e-10
1.265012567e-10
-9.18642836e-12
2.317873918e-11
-1.041014911e-10
-5.323361071e-12
7.412858655e-11
1.523152873e-11
-4.388009985e-11
-2.40540146e-12
2.184595705e-11
6.132583187e-12
-1.124739847e-11
-1.333099673e-12
1.190489629e-11
5.370090995e-12
-2.834556308e-11
-1.427330436e-11
7.313528164e-11
4.57065863e-11
-1.550334698e-10
-1.090525281e-10
2.54077824e-10
1.617504932e-10
-3.209886693e-10
-2.438064569e-10
3.034762631e-10
2.142237506e-10
-1.867767202e-10
-6.630567678e-11
5.698331328e-11
5.267029885e-11
-7.765017527e-12
-5.187514337e-12
1.023158451e-11
8.236521391e-12
-1.286278254e-11
1.666943976e-11
1.362480193e-11
-8.59184917e-14
-2.681869244e-11
4.120918931e-12
1.095053118e-12
-4.258243637e-12
-2.956710468e-13
4.846470472e-13
1.421608594e-13
-8.577238188e-13
4.443045514e-13
2.147839597e-10
-3.511355521e-12
-4.837420084e-10
3.311415901e-10
6.462352298e-11
-2.563891133e-10
4.748831005e-19
2.077575738e-10
3.930552259e-11
-1.707329972e-10
4.281362279e-20
1.411870627e-10
2.756318307e-11
-1.163665926e-10
1.250052304e-11
8.379266103e-11
1.962175337e-11
-6.614454745e-11
7.495456773e-12
5.426146834e-11
3.552134358e-11
-5.807442831e-11
1.011947134e-11
7.475427542e-11
5.225413571e-12
-8.039399749e-11
1.21098038e-11
6.54958818e-11
-1.519302937e-11
-5.1717754e-11
9.185741075e-12
3.811693725e-11
2.795431571e-12
-3.795677274e-11
3.810247016e-12
4.26745749e-11
1.387710212e-11
-1.317565731e-10
4.156424028e-11
3.717784752e-10
-5.562006323e-12
-5.997089215e-10
1.467359934e-10
4.235435082e-10
-6.70471051e-12
-2.349916568e-10
4.946538294e-11
1.519053662e-10
-1.108573485e-11
-1.374585813e-10
6.989239368e-11
2.014467089e-10
-5.800829952e-11
-3.500925264e-10
2.016548423e-10
5.369111455e-10
-1.152007441e-10
-6.435606848e-10
2.3108581e-10
5.960339605e-10
-8.141028551e-11
-4.700186581e-10
1.167970812e-10
3.700331903e-10
-6.534020076e-11
1.053323946e-10
3.759571467e-10
-3.380758183e-10
-4.971042133e-11
9.810805308e-11
-1.840543357e-10
1.252712759e-10
-3.897433433e-11
8.909998423e-11
-8.710474857e-11
-1.950772851e-11
8.543401237e-11
6.096222799e-11
-1.308707508e-10
-8.205629517e-12
1.926727323e-10
1.108191797e-10
-1.90796559e-10
-1.528195241e-11
1.314387377e-10
3.980339864e-11
-1.362466458e-10
-9.235616795e-11
2.003170302e-10
1.040002921e-10
-2.46515418e-10
-1.651397695e-10
2.530627928e-10
1.367597541e-10
-2.154648905e-10
-1.410990239e-10
1.467516354e-10
8.768577741e-11
-7.240518741e-11
-2.791605557e-11
2.208647095e-11
1.559473889e-11
-6.449703296e-12
-7.005165092e-12
5.071788385e-12
4.937165863e-12
-3.215588226e-12
3.049765408e-12
2.639410315e-12
-7.665709934e-11
1.906441049e-12
4.063283439e-12
4.751869878e-12
2.485855795e-11
-4.87188385e-12
1.210254882e-12
5.452673633e-12
8.3246689e-12
-6.802957986e-12
9.144309852e-11
-9.017956008e-13
4.405375758e-10
-6.008169731e-15
-1.117612738e-19
9.820715734e-20
4.34679987e-20
-8.270459726e-22
-2.059415187e-21
3.577186374e-22
1.304320127e-21
6.309571115e-22
-6.417336928e-12
-8.507528457e-21
3.951063773e-12
2.874200797e-12
-2.577889439e-11
-4.11718197e-12
5.253492149e-11
4.753738162e-12
-1.303194239e-11
-1.625376184e-11
1.479263378e-11
1.404593125e-11
-7.232024437e-12
-9.833937817e-12
5.106367534e-12
7.117043325e-12
-5.398994938e-12
-7.244966817e-12
6.225020014e-12
1.085362437e-11
-1.392299829e-11
-3.810433404e-11
2.79087517e-11
5.739703698e-11
-5.557993468e-11
-1.101508905e-10
9.221818314e-11
2.316663724e-10
-1.709835362e-10
-4.508675386e-10
2.780960279e-10
7.801789227e-10
-2.896545166e-10
-1.259146398e-09
6.85390974e-10
2.041663778e-09
-6.25464621e-10
-3.494730427e-09
1.564055703e-09
5.951913497e-09
-8.775343178e-10
-8.039381916e-09
1.086112938e-09
6.935009242e-09
-3.58323995e-10
-3.396288606e-09
3.682389341e-10
1.062262687e-09
-1.141461199e-10
-3.728727801e-10
1.035991205e-10
2.383578776e-10
-1.143642185e-10
1.059322225e-10
2.70332582e-10
-2.341192951e-10
-5.26959284e-10
-3.713153582e-09
9.015667015e-09
-2.327308062e-09
3.630629502e-09
-1.250274806e-08
-2.34357004e-09
1.208042707e-08
4.477491744e-09
-9.066066018e-09
-1.048688576e-09
5.263962321e-09
1.915659268e-09
-2.194479998e-09
-1.3408191e-10
5.534236184e-10
2.088453445e-10
-1.010774897e-10
-1.040191567e-10
1.307400332e-10
7.709942155e-11
-1.323911079e-10
-1.02753406e-10
1.157426574e-10
7.342375379e-11
-8.348181229e-11
-5.431573014e-11
4.836672621e-11
3.426196126e-11
-2.150849485e-11
-9.396903883e-12
7.621421121e-12
5.42988683e-12
-2.822798786e-12
-4.069077939e-12
1.792499745e-12
1.872434791e-12
-3.95932741e-13
-3.849557994e-11
-3.365701582e-15
1.79539404e-11
-3.284491197e-09
-5.198639159e-09
1.853431902e-08
1.329424261e-08
-1.976499904e-08
-2.047289265e-09
1.342612903e-08
8.5620646e-09
-7.094155526e-09
-5.393943822e-10
3.004134704e-09
2.105637485e-09
-1.00607284e-09
-6.968635359e-15
3.725438573e-10
2.122840457e-10
-2.898116862e-14
-9.508342281e-22
9.023030562e-23
8.536299685e-22
1.838736968e-22
-2.666390732e-12
-1.945763387e-20
1.890021488e-12
1.111954127e-12
-6.46689316e-11
-3.889417208e-12
6.194220937e-11
1.211884406e-11
-1.585675107e-11
-1.651061529e-11
1.302638369e-11
1.041002617e-11
-4.928749313e-12
-6.696960989e-12
7.287314652e-12
8.083058551e-12
-1.272538734e-11
-1.757293366e-11
2.565464874e-11
3.78082388e-11
-3.464234305e-11
-5.775421255e-11
4.731481479e-11
1.046372728e-10
-1.403807583e-10
-2.375903851e-10
2.298049482e-10
5.282058739e-10
-4.637738539e-10
-1.072284185e-09
8.024153449e-10
2.009110424e-09
-1.289519206e-09
-3.475860123e-09
1.981215099e-09
5.318972915e-09
-2.108893105e-09
-7.539526435e-09
-5.354438192e-12
8.190720658e-09
7.5686782e-10
-5.450434122e-09
-2.541119821e-10
3.265465918e-09
-1.192999688e-10
-1.764984215e-09
7.657865459e-11
7.20080034e-10
-9.707499879e-11
-3.307343844e-10
1.061274789e-10
2.462028675e-10
-9.87760526e-11
7.641299115e-11
2.867408706e-10
-2.359256594e-10
1.430742299e-09
-2.334586527e-09
6.708482344e-10
-3.991616208e-09
-4.418850337e-09
6.131337762e-09
2.416667706e-09
-5.731333346e-09
-2.008433352e-09
3.644958162e-09
1.411679519e-09
-1.546708056e-09
-2.104515149e-10
3.682907444e-10
1.781947926e-10
-3.65843053e-11
-5.300227483e-11
4.638716908e-11
3.649860125e-11
-4.868825538e-11
-5.276884087e-11
4.323970989e-11
3.932330115e-11
-3.184243198e-11
-2.329493117e-11
2.03119733e-11
1.873920413e-11
-1.344346964e-11
-5.715428385e-12
1.284269705e-11
1.254546126e-11
-1.902578914e-11
-9.861341356e-12
3.035886586e-11
3.490965411e-11
-5.38904863e-11
3.593542418e-12
5.373470482e-11
-6.179073512e-15
-4.619438274e-10
-1.607325453e-08
9.432342147e-09
7.970590513e-09
-3.246325207e-08
-2.173668878e-08
4.680920705e-08
3.315141088e-08
-4.897100305e-08
-7.302919391e-09
2.361449796e-08
1.794780393e-08
-8.23235721e-09
-6.158743191e-10
1.595422488e-09
1.136331167e-09
-1.090394159e-13
-1.252137973e-21
8.136376786e-22
8.231076406e-21
1.065898778e-21
-1.55786731e-12
-7.566365058e-19
1.320840044e-12
5.848710808e-13
-4.973466972e-11
-2.674528195e-12
3.522848672e-11