/*--------------------------------*- C++ -*----------------------------------*\
| =========                 |                                                 |
| \\      /  F ield         | OpenFOAM: The Open Source CFD Toolbox           |
|  \\    /   O peration     | Version:  2.1.x                                 |
|   \\  /    A nd           | Web:      www.OpenFOAM.org                      |
|    \\/     M anipulation  |                                                 |
\*---------------------------------------------------------------------------*/
FoamFile
{
    version     2.0;
    format      ascii;
    class       volVectorField;
    location    "0.3";
    object      Uf;
}
// * * * * * * * * * * * * * * * * * * * * * * * * * * * * * * * * * * * * * //

dimensions      [0 1 -1 0 0 0 0];

internalField   nonuniform List<vector> 
2828
(
(-0.8487961378 0 0.155557156)
(-0.8356556 0 0.2088248552)
(-1.15323733 0 0.5076962569)
(-1.076119094 0 0.5864802591)
(-1.054518348 0 0.6583649794)
(-0.6900786113 0 -0.2346287099)
(-0.6577671958 0 -0.1907229759)
(-0.6452119391 0 -0.1378357375)
(-0.4981250112 0 -0.1159681439)
(-0.9642474714 0 0.1881507933)
(-0.9485045537 0 0.262634723)
(-1.345868176 0 0.6538436079)
(-1.052717003 0 0.6221933944)
(-0.9667041457 0 0.6400339857)
(-1.019861625 0 0.6815101817)
(-0.8268192176 0 0.4884886359)
(-0.572403886 0 0.2781524969)
(-0.5130978454 0 -0.2418434601)
(-0.6628062885 0 -0.261188035)
(-0.6546664587 0 -0.2313644743)
(-0.6290012138 0 -0.195990121)
(-0.653278981 0 -0.159509417)
(-0.5070074941 0 -0.1328232412)
(-1.113732122 0 0.2386930693)
(-1.002657176 0 0.3159711852)
(-1.332104054 0 0.701274589)
(-0.9435110512 0 0.5546224453)
(-0.8760055613 0 0.5565934373)
(-0.8740266649 0 0.5944638031)
(-0.7428323221 0 0.4416391864)
(-0.6145376973 0 0.3144349078)
(-0.6709248633 0 0.349345948)
(-0.7702607117 0 0.3714774983)
(-0.374718433 0 -0.236386765)
(-0.4663439956 0 -0.2221638208)
(-0.6055747021 0 -0.2392771721)
(-0.6051133513 0 -0.2199289302)
(-0.6040427259 0 -0.2059113831)
(-0.6822359821 0 -0.1926181702)
(-0.7023400078 0 -0.1684594741)
(-1.245445002 0 0.2942893535)
(-0.9770743371 0 0.346825837)
(-1.08088701 0 0.5609135971)
(-0.8704839837 0 0.4286331175)
(-0.8508118549 0 0.4587937706)
(-0.795240465 0 0.4956914582)
(-0.6746231348 0 0.4008873769)
(-0.6717878995 0 0.3905411213)
(-0.7241336163 0 0.4399647034)
(-0.9414250832 0 -0.002085252135)
(-1.740414752 0 -0.9318418449)
(-1.551525245 0 1.51738665)
(-0.7550462758 0 -0.5827212434)
(-0.4755333739 0 -0.3180541885)
(-0.4227312794 0 -0.2054734055)
(-0.5416585505 0 -0.2133289479)
(-0.5587381072 0 -0.2029441194)
(-0.5728951416 0 -0.209234072)
(-0.6977344499 0 -0.2315302198)
(-0.9795684751 0 -0.2467834197)
(-1.318004821 0 0.3558933915)
(-1.043237876 0 0.3538633448)
(-0.934656735 0 0.3817758152)
(-0.8634056427 0 0.3599451732)
(-0.8439729178 0 0.4198567308)
(-0.8341854795 0 0.506123206)
(-0.8747471273 0 0.6039297869)
(-1.166858575 0 0.8960215435)
(-1.312116423 0 1.077986791)
(-1.131537564 0 0.94339702)
(-0.7924167957 0 0.5686794231)
(0.2419938965 0 0.71971652)
(-0.4955295812 0 0.4225239867)
(-1.137265006 0 -0.9738808366)
(-1.161142394 0 -0.9477908076)
(-0.8591500713 0 -0.6336451375)
(-0.3918573664 0 -0.199952672)
(-0.4766623096 0 -0.1858781981)
(-0.5163124267 0 -0.1817193639)
(-0.5344469236 0 -0.1983658692)
(-0.6625060675 0 -0.2529118565)
(-1.159749605 0 -0.3750655157)
(-1.195061525 0 0.3721989156)
(-0.9854947572 0 0.3367197773)
(-1.001626504 0 0.3310816779)
(-0.9052514722 0 0.370781689)
(-0.8312831976 0 0.4447585539)
(-0.9479709656 0 0.6553011038)
(-1.255821977 0 0.963871132)
(-1.800844975 0 1.461752939)
(-2.041143815 0 1.780515605)
(-1.845251464 0 1.716440555)
(-1.324879868 0 1.251972234)
(-0.7197825985 0 0.5756929597)
(-0.5060076855 0 0.3895449958)
(-0.37214751 0 0.3422669947)
(-0.9846354027 0 -0.9208889411)
(-1.36793672 0 -1.226431785)
(-1.565513097 0 -1.341580579)
(-1.472194033 0 -1.163824116)
(-0.4422444461 0 -0.2498615641)
(-0.4150615374 0 -0.1616883128)
(-0.4789188519 0 -0.1614072205)
(-0.4955528553 0 -0.1725394565)
(-0.5636514702 0 -0.2162878551)
(-0.9896752863 0 -0.3704564463)
(-0.7928210845 0 0.0534970886)
(-1.097963535 0 0.3393186892)
(-1.195794076 0 0.3926585506)
(-1.009996266 0 0.4561842871)
(-0.8823743587 0 0.5584475659)
(-1.159741811 0 0.9026996661)
(-1.537850338 0 1.21174715)
(-2.06444316 0 1.689145993)
(-2.39344425 0 2.14134908)
(-2.316678677 0 2.25744659)
(-1.769229985 0 1.81903797)
(-1.070038588 0 1.076784319)
(-0.4835884262 0 0.4175531225)
(-0.3050368473 0 0.3101631004)
(-0.4779159081 0 -0.6016506275)
(-0.816119666 0 -0.8270098906)
(-1.59077832 0 -1.506066597)
(-1.973081033 0 -1.783573279)
(-1.948285472 0 -1.628416746)
(-0.5998328561 0 -0.3721828723)
(-0.3608829603 0 -0.1450731468)
(-0.4492276669 0 -0.1492943927)
(-0.471812629 0 -0.149096816)
(-0.447263104 0 -0.143301849)
(-0.5342743015 0 -0.1171179692)
(-0.7466483492 0 -0.1380161281)
(-1.427909472 0 0.3652675473)
(-1.412773872 0 0.5069466915)
(-1.142580276 0 0.6037088847)
(-1.160600344 0 0.8616920907)
(-1.407058196 0 1.126182778)
(-1.623542115 0 1.280073621)
(-1.93826145 0 1.644436472)
(-2.13648906 0 2.036204724)
(-2.208034087 0 2.308554121)
(-1.840232665 0 2.037072046)
(-1.194322764 0 1.33398592)
(-0.567409378 0 0.5803452614)
(-0.2404379276 0 0.2596472476)
(-0.1584718666 0 0.1743129569)
(-0.04325998156 0 -0.3311540813)
(-0.3476365775 0 -0.5097213158)
(-0.7182896016 0 -0.748099514)
(-1.03418644 0 -0.9991824416)
(-0.7920239035 0 -1.21628558)
(-0.7540149778 0 -0.4911188053)
(-0.3167171535 0 -0.1395862656)
(-0.4283885464 0 -0.1484883278)
(-0.4751787267 0 -0.1469753035)
(-0.4273774345 0 -0.1322459775)
(-0.5043855594 0 -0.09366658525)
(-0.8487790003 0 -0.1250757161)
(-1.855950509 0 0.4190322725)
(-1.572910653 0 0.6585948969)
(-1.365496117 0 0.8918743214)
(-1.914575157 0 1.469832628)
(-1.620816044 0 1.312903287)
(-1.661939722 0 1.328732894)
(-1.79058186 0 1.669035606)
(-1.787372853 0 1.903359212)
(-1.714421412 0 1.984044502)
(-1.46619213 0 1.78046245)
(-1.031602063 0 1.26089793)
(-0.5677170459 0 0.6488801115)
(-0.1988186457 0 0.2006024233)
(-0.1778933714 0 0.1705959099)
(-0.169108376 0 0.1836932916)
(-0.74113615 0 -1.528968947)
(-0.8215388028 0 -1.653181974)
(-0.8731490641 0 -1.585668281)
(-0.4602087477 0 -0.5678179418)
(-1.007314894 0 -1.160431919)
(-1.014007861 0 -1.053619528)
(-0.8759059257 0 -0.7242459646)
(-0.2782162449 0 -0.1469639049)
(-0.4135886572 0 -0.1556660991)
(-0.4917316359 0 -0.1582008084)
(-0.4697174709 0 -0.1412507633)
(-0.4851254451 0 -0.04728052722)
(-1.692822949 0 -0.02313033406)
(-2.198358826 0 0.5333670622)
(-1.618727645 0 0.8444142544)
(-2.169315449 0 1.554505222)
(-2.440234193 0 1.906274694)
(-1.869042459 0 1.546228211)
(-1.674860372 0 1.477011738)
(-1.515773593 0 1.613799996)
(-1.373806771 0 1.644146899)
(-1.131210147 0 1.462933445)
(-0.9221000277 0 1.248939952)
(-0.7739338834 0 1.036399305)
(-0.479695792 0 0.5725291881)
(-0.2516710543 0 0.2045462474)
(-0.2277408509 0 0.2279803586)
(-0.1759457081 0 0.2155198295)
(-0.783029468 0 -1.993513035)
(-0.7949780427 0 -1.988701719)
(-0.688452926 0 -1.596338338)
(-0.122243849 0 -0.2277712553)
(-0.1431793641 0 -0.2355565626)
(-0.1724121483 0 -0.2445120585)
(-0.1940032717 0 -0.224034783)
(-0.2487454755 0 -0.1732295964)
(-0.4025788636 0 -0.1700028729)
(-0.5050390217 0 -0.1741265271)
(-0.5591795622 0 -0.1667697917)
(-0.6817588127 0 0.09783971022)
(-1.934115387 0 0.0001912854242)
(-1.86447879 0 0.5805278897)
(-1.398182287 0 1.007810887)
(-3.101617511 0 2.263471982)
(-2.85232076 0 2.300439883)
(-2.265367058 0 1.94445066)
(-1.830957683 0 1.657403165)
(-1.299430143 0 1.319652107)
(-0.8797825625 0 1.108157639)
(-0.709501674 0 1.024545648)
(-0.671269781 0 1.012781397)
(-0.5919590645 0 0.867416121)
(-0.3999127401 0 0.4498318796)
(-0.3345953428 0 0.3442683415)
(-0.2541226668 0 0.3697190766)
(-0.177261053 0 0.3287525208)
(0.1239834864 0 -0.4716070403)
(-0.1025488067 0 -0.2296528711)
(-0.1083861084 0 -0.2284403524)
(-0.1177183998 0 -0.248617179)
(-0.1679165998 0 -0.34095076)
(-0.2937249027 0 -0.5494011495)
(-0.3178944483 0 -0.5095997136)
(-0.2706756525 0 -0.2912274839)
(-0.3920382619 0 -0.1950598896)
(-0.5175071381 0 -0.1958724131)
(-0.6751903944 0 -0.2107430341)
(-1.120910872 0 0.428786469)
(-1.82363575 0 0.00249628327)
(-1.262875163 0 0.4514638922)
(-0.8325175401 0 0.9836519496)
(-3.693464057 0 2.874091128)
(-2.326630499 0 2.942058911)
(-2.345441858 0 2.58165469)
(-1.680124262 0 2.077099371)
(-1.107582152 0 1.554677635)
(-0.7505127277 0 1.179114303)
(-0.5760420934 0 0.9650375096)
(-0.5146365404 0 0.8602025995)
(-0.3947929544 0 0.6283774178)
(-0.370119668 0 0.3284529684)
(-0.3680414162 0 0.7723770004)
(-0.2609144841 0 0.7360622929)
(-0.191126279 0 0.6509562279)
(-0.1482390112 0 0.5805027721)
(-0.06532636804 0 -0.1994679873)
(-0.08425066233 0 -0.2257849165)
(-0.09726593729 0 -0.246993073)
(-0.2522226755 0 -0.6144357292)
(-0.4227864305 0 -0.9757872834)
(-0.4818354035 0 -1.011467344)
(-0.4814192611 0 -0.8748329933)
(-0.5068249042 0 -0.7305665641)
(-0.3700646732 0 -0.2347571589)
(-0.5427866098 0 -0.2285862644)
(-0.8472020268 0 -0.2917327869)
(-1.670606761 0 0.8125029319)
(-1.274613881 0 1.054375171)
(-0.9425922158 0 1.028296229)
(-0.9003175765 0 1.195294553)
(-2.867076423 0 2.864939685)
(-3.144232343 0 3.79152912)
(-2.264081454 0 3.069967171)
(-1.311877527 0 2.049637862)
(-0.8047888155 0 1.448239304)
(-0.5719377351 0 1.09229191)
(-0.4446034688 0 0.8501374404)
(-0.3395234013 0 0.6310153682)
(-0.1594489669 0 0.3149437822)
(-0.1989217007 0 0.4448327633)
(-0.2002445042 0 0.7702110906)
(-0.1549540772 0 0.8291497417)
(-0.1229005192 0 0.8524565757)
(-0.1035388718 0 0.8557499365)
(-0.0428011675 0 -0.2012033147)
(-0.05235990295 0 -0.218342329)
(-0.06617477034 0 -0.2396498982)
(-0.1250740911 0 -0.3927602258)
(-0.3249366319 0 -1.000882192)
(-0.3949829489 0 -1.172664762)
(-0.3985672142 0 -1.083186331)
(-0.3989166533 0 -0.9456705283)
(-0.4222390317 0 -0.7268203521)
(-0.3011775724 0 -0.2826596937)
(-0.5720593457 0 -0.269066785)
(-1.149607777 0 -0.4305709734)
(-2.091304581 0 1.152920414)
(-1.496720601 0 1.588083157)
(-0.912506267 0 1.234846021)
(-1.071917864 0 1.563438378)
(-1.123647345 0 1.732324504)
(-1.121649726 0 2.076804711)
(-0.7816560443 0 1.677384461)
(-0.631999035 0 1.428163381)
(-0.5519883264 0 1.239212866)
(-0.4348175699 0 0.9561765901)
(-0.2445031444 0 0.5870794533)
(-0.08673241753 0 0.355463517)
(-0.3160194129 0 1.0355453)
(-0.2451303088 0 0.9598742505)
(-0.1908906305 0 0.8506548738)
(-0.1705800294 0 0.8517979216)
(-0.1679337071 0 0.9429116549)
(-0.1620211776 0 1.041655364)
(-0.0373007024 0 -0.2387490911)
(-0.04085911409 0 -0.2405316647)
(-0.0403207656 0 -0.2512608018)
(-0.03757102876 0 -0.2667856663)
(-0.02804425333 0 -0.2927799809)
(-0.02650524429 0 -0.34044092)
(-0.05675459035 0 -0.4083057591)
(0.2135970378 0 -0.533303738)
(0.4108346106 0 -0.6657093816)
(-0.2065003852 0 -0.4393696389)
(-0.539255722 0 -0.2859431903)
(-1.61001288 0 -0.6547709431)
(-2.085393514 0 1.562894044)
(-1.259249872 0 1.933011241)
(-0.7397799629 0 1.49361776)
(-0.2854355962 0 1.208866763)
(-0.4136523857 0 1.446016418)
(-0.3496628932 0 0.905731226)
(-0.2679352578 0 0.6126573303)
(-0.07936579913 0 0.3926327776)
(-0.1248697104 0 0.2629152906)
(-0.1358646585 0 0.7371590102)
(-0.1133598285 0 0.6943901828)
(-0.09080116436 0 0.6036551157)
(-0.2160625366 0 1.252433199)
(-0.1848165256 0 1.247377347)
(-0.1512583954 0 1.096837545)
(-0.1254353074 0 0.9792612129)
(-0.1103110286 0 0.9443780119)
(-0.09976488221 0 0.9830881292)
(0.08967199311 0 -0.4400743014)
(0.06288685568 0 -0.3488298804)
(0.03755927617 0 -0.3069952799)
(0.0360754729 0 -0.3468847177)
(0.06935749007 0 -0.4512470772)
(0.2321258629 0 -0.6796529804)
(0.4368451972 0 -0.9579737657)
(0.4250363267 0 -0.9230925833)
(0.4770323763 0 -1.14821308)
(0.6612450211 0 -2.021086074)
(-0.1508298981 0 -0.1481613062)
(-0.2833898607 0 -0.5647742657)
(-0.8415869527 0 0.03387085359)
(-0.1800839051 0 0.3245417356)
(-0.2444271016 0 0.8719069481)
(-0.2910135285 0 1.09219888)
(-0.3409975908 0 1.065805005)
(-0.1672333819 0 0.7177863609)
(-0.1093866708 0 0.3329535485)
(-0.04759630074 0 0.2531862288)
(0.04422926612 0 0.2524093165)
(-0.2204831656 0 0.8154454528)
(-0.1367075602 0 0.5613305101)
(-0.02721221191 0 0.3267267831)
(0.1361335887 0 0.5390144965)
(0.1608134175 0 0.5642167609)
(0.161136804 0 0.492823842)
(0.1463479563 0 0.4128757664)
(0.1205440817 0 0.3940780051)
(0.1084583556 0 0.40035185)
(0.09792276592 0 -0.3284156183)
(0.1062535641 0 -0.3591079211)
(0.1327547007 0 -0.4399534023)
(0.1873082049 0 -0.5964940939)
(0.1139722335 0 -1.05954611)
(0.6497936206 0 -1.427628072)
(0.8772411817 0 -1.846611615)
(1.254931783 0 -2.444497654)
(2.104965725 0 -3.450013327)
(3.437880221 0 -3.705678758)
(-0.2051859189 0 0.1403557808)
(0.07228566322 0 -0.3524632565)
(0.1114489299 0 -0.3483636132)
(-0.1047541335 0 -0.06341441071)
(0.5607801766 0 -1.26103645)
(1.376675343 0 0.4637145608)
(0.8970723292 0 1.226345487)
(0.3753804144 0 0.1295934821)
(0.2343664707 0 0.2138518952)
(0.1738383968 0 0.253795382)
(0.1341095048 0 0.2406539992)
(0.4193397245 0 0.9048326411)
(0.3339998123 0 0.8943494392)
(0.2915294212 0 0.864745532)
(0.2968110087 0 0.9338527688)
(0.2709647065 0 0.9363224762)
(0.2276825493 0 0.7511418405)
(0.1942193155 0 0.4401446345)
(0.1495775058 0 0.3391700288)
(0.1315113694 0 0.3242630298)
(0.220877087 0 -0.6006349207)
(0.4387068351 0 -1.214498384)
(0.5190626133 0 -1.439868788)
(0.5091190803 0 -1.384414753)
(0.4747518849 0 -1.237172123)
(0.7845925311 0 -1.461932074)
(1.102365268 0 -1.878506768)
(1.560372772 0 -2.323054984)
(2.412886424 0 -2.913248654)
(3.887123134 0 -3.37128626)
(0.2156841759 0 0.314941587)
(1.198354028 0 -2.030815952)
(1.56660106 0 -2.505447783)
(1.565621911 0 -2.170508872)
(0.8131443077 0 -1.025432584)
(1.89901524 0 0.2021923229)
(0.9761237138 0 0.6635038387)
(0.3688614998 0 0.1040107543)
(0.2522865713 0 0.1901017379)
(0.1826264631 0 0.1998063305)
(0.1277532002 0 0.1881526885)
(0.4013956736 0 0.6837023893)
(0.3567943479 0 0.7303663595)
(0.3562015987 0 0.8233623608)
(0.3566379924 0 0.9032224176)
(0.1560440785 0 0.8670486775)
(-0.2400227529 0 0.6188348742)
(-0.001981691072 0 0.3099416021)
(0.1275338162 0 0.2640922354)
(0.1287546907 0 0.2757819973)
(0.2849828606 0 -0.6655041698)
(0.4577335567 0 -1.109593878)
(0.4815143779 0 -1.149816162)
(0.4676823461 0 -0.9757632799)
(0.8314237759 0 -1.148464961)
(1.374883624 0 -1.516119285)
(1.707206736 0 -1.781304363)
(2.02273386 0 -1.988415153)
(1.051469158 0 -0.8641738103)
(0.1276340815 0 -0.0954108462)
(0.9556575999 0 -1.28116512)
(1.329153556 0 -1.763103385)
(1.421666392 0 -1.646519787)
(0.8639751918 0 -0.9931544266)
(1.499612496 0 0.01658945933)
(0.7245391312 0 0.3097511927)
(0.5516745166 0 0.241978748)
(0.1864089977 0 0.2024855192)
(0.1563680183 0 0.1584319763)
(0.1251519854 0 0.161543572)
(0.147321564 0 0.2255816427)
(0.2117549607 0 0.3866069467)
(0.2368312799 0 0.4680609238)
(0.2904455992 0 0.3887192282)
(0.6341442763 0 1.422656984)
(0.4711160293 0 1.690527676)
(0.3640290943 0 1.372989486)
(0.314248293 0 1.228952741)
(0.2816336951 0 1.122871837)
(0.2462800485 0 -0.4706797225)
(0.3149582288 0 -0.5564968294)
(0.4042781971 0 -0.6339384902)
(0.5940998751 0 -0.737106883)
(0.8641079778 0 -0.9300704095)
(1.08320863 0 -1.100754483)
(1.29579891 0 -1.265357567)
(1.623675079 0 -1.495979182)
(0.5780977419 0 -0.6018336071)
(0.2560704492 0 -0.6970314647)
(0.5250050714 0 -0.9823655159)
(0.6349978492 0 -1.314307124)
(1.031507709 0 -0.5161650919)
(0.8276748539 0 -0.7574434212)
(0.5001274578 0 0.8522196506)
(0.4497679015 0 0.8861909254)
(2.006916489 0 2.296666916)
(1.862155302 0 3.133172681)
(1.374700163 0 2.61887569)
(0.7669358753 0 1.521301068)
(0.3169094222 0 0.6102266989)
(0.1781270227 0 0.323653016)
(0.1245596711 0 0.2479818849)
(0.1667145842 0 0.1195130649)
(0.9276156659 0 1.113394271)
(0.7618354571 0 1.313511309)
(0.5777346725 0 1.275838843)
(0.497970621 0 1.303767993)
(0.4576312189 0 1.312554873)
(0.2777365831 0 -0.4540082313)
(0.3393319244 0 -0.4876357638)
(0.4402236889 0 -0.5394625519)
(0.584280786 0 -0.6338125781)
(0.7497342135 0 -0.7626664584)
(0.8998002689 0 -0.8810395042)
(1.060901412 0 -1.001046038)
(1.328822481 0 -1.195504002)
(1.136393917 0 -1.326596358)
(1.748805516 0 -1.710355506)
(2.029126904 0 -1.498672638)
(0.2686725492 0 -0.4007950118)
(1.744179346 0 1.30878325)
(0.7351535027 0 0.8885597971)
(0.4676567585 0 0.8170384075)
(0.3777220483 0 0.6949362091)
(0.8685219828 0 0.9491270442)
(1.40366177 0 1.587724098)
(1.260119149 0 1.712993507)
(0.9652412013 0 1.492177034)
(0.6162695626 0 1.035731128)
(0.3644492926 0 0.6333116711)
(0.2686570268 0 0.479654436)
(0.1769397749 0 0.3483691245)
(0.7965895201 0 0.8047355656)
(0.7501870177 0 0.9534597009)
(0.6775270437 0 1.075959151)
(0.5772147474 0 1.112813258)
(0.3509763309 0 -0.4326148538)
(0.4211470901 0 -0.467159236)
(0.5112792627 0 -0.528767336)
(0.6150008954 0 -0.6100180287)
(0.7264607093 0 -0.699482367)
(0.8251401549 0 -0.7762430744)
(0.8032033372 0 -0.7863014075)
(1.168138587 0 -1.09446503)
(1.570695234 0 -1.223610137)
(2.168922718 0 -1.307948916)
(0.3007265346 0 -0.08721716163)
(0.9412068807 0 0.7563478807)
(0.3173749585 0 0.7818520249)
(0.4837393097 0 0.7516086326)
(0.3599726537 0 0.6224794193)
(0.5012645893 0 0.6378076632)
(0.8167691419 0 0.8466282942)
(0.9103066322 0 1.030255491)
(0.8505367554 0 1.083680624)
(0.6878232619 0 0.9724407031)
(0.5011900073 0 0.7639629504)
(0.4101383375 0 0.6502669847)
(0.3299598842 0 0.5451397401)
(0.4550750463 0 0.5313539266)
(0.5734943156 0 0.697181787)
(0.4997383682 0 0.7223926941)
(0.2467108681 0 0.4322922307)
(0.3593148835 0 -0.4101139196)
(0.3977522244 0 -0.4220282668)
(0.4429392284 0 -0.4489178998)
(0.4947565501 0 -0.4868951353)
(0.5492175279 0 -0.530707643)
(0.5934307445 0 -0.5716225042)
(0.6968977299 0 -0.6525975523)
(1.04159946 0 -0.8432252653)
(1.346183229 0 -0.9374835533)
(2.072794192 0 -1.188978876)
(0.5787509272 0 0.5656033252)
(1.152203783 0 0.3334386791)
(1.195636275 0 0.6007419539)
(0.9274353066 0 0.5698397751)
(0.5491568144 0 0.4885305667)
(0.4808575254 0 0.5123115577)
(0.6029642288 0 0.6158736457)
(0.6696807836 0 0.7103151195)
(0.6748279644 0 0.7744134773)
(0.6275481736 0 0.7851944298)
(0.5604667403 0 0.7587063219)
(0.5272135145 0 0.7538751592)
(0.4562501177 0 0.6791991053)
(0.2622094905 0 0.4027922599)
(0.1524071611 0 0.2580302651)
(0.1047011975 0 0.2027795123)
(0.3865728033 0 -0.4014001805)
(0.3929030838 0 -0.3949206056)
(0.4049369953 0 -0.3980197859)
(0.4246734731 0 -0.4109750337)
(0.4710493556 0 -0.4402827648)
(0.6608626409 0 -0.548996541)
(0.8568376743 0 -0.6301153157)
(1.077715492 0 -0.7052605969)
(1.537579477 0 -0.8752245282)
(0.5491620367 0 0.3621120526)
(0.9357696597 0 0.2638045448)
(1.008796584 0 0.4898030302)
(0.8204745993 0 0.4587849312)
(0.5980884375 0 0.387728961)
(3.162699819 0 1.323941166)
(3.168094386 0 2.12948663)
(1.94517075 0 1.57586439)
(0.6191086186 0 0.6618838733)
(0.6046331523 0 0.7045176675)
(0.6200074266 0 0.7743974578)
(0.6258131514 0 0.8261667391)
(0.5260703471 0 0.7189226658)
(0.2781818507 0 0.5100875642)
(0.1691044429 0 0.2808813438)
(0.1272129624 0 0.214013431)
(0.388303805 0 -0.3951465284)
(0.3699203029 0 -0.3667653123)
(0.3545908159 0 -0.3429427523)
(0.3632744916 0 -0.3376648702)
(0.4397483848 0 -0.3732274585)
(0.5656747096 0 -0.4315209359)
(0.6674722851 0 -0.4619284501)
(0.7787862867 0 -0.4870800011)
(0.9002593199 0 -0.3932209572)
(0.4080472588 0 0.07291076548)
(0.7854110455 0 0.2175265303)
(0.8637548723 0 0.405490126)
(0.7196534502 0 0.3816109946)
(0.5886291815 0 0.3401381088)
(4.368649714 0 1.445680898)
(4.219810451 0 2.115539716)
(2.265874957 0 1.416528124)
(0.6060494839 0 0.6082677976)
(0.6236246162 0 0.6963240481)
(0.6611613434 0 0.7875051039)
(0.6224674092 0 0.7748731341)
(0.4719205547 0 0.5877989468)
(0.502398006 0 0.6791238242)
(0.4981259174 0 0.740599611)
(0.360312687 0 -0.3456045594)
(0.3354153515 0 -0.3090290635)
(0.3442672158 0 -0.2960098329)
(0.3965307006 0 -0.3113977133)
(0.451811413 0 -0.3258029926)
(0.4931952653 0 -0.3271072126)
(0.523279851 0 -0.3042682874)
(0.5862711352 0 -0.1955440791)
(0.29538689 0 -0.02124591152)
(0.6556290774 0 0.1793708001)
(0.6943743442 0 0.3042252313)
(0.639590439 0 0.3169820262)
(0.6218801195 0 0.3274379365)
(5.015077871 0 1.495422748)
(4.017467083 0 1.656374984)
(1.182891946 0 0.6554406665)
(0.5179421772 0 0.4806694508)
(0.5544537915 0 0.5841093424)
(0.552575424 0 0.6238679437)
(0.4374805263 0 0.507142931)
(0.1801490491 0 0.2013914546)
(0.5082464476 0 0.6132892015)
(0.3330987261 0 -0.2874458536)
(0.3360212636 0 -0.2699422918)
(0.3487394033 0 -0.2601363453)
(0.3562355509 0 -0.2469775207)
(0.3563611325 0 -0.2244115376)
(0.359493899 0 -0.1753367685)
(0.3869708078 0 -0.1199185274)
(0.2176120194 0 -0.03038029175)
(0.5192593447 0 0.1418720555)
(0.5460038941 0 0.2057164276)
(0.6112533489 0 0.2635412624)
(0.6831968544 0 0.3183659895)
(3.414228174 0 1.006887747)
(2.107526111 0 0.7884213385)
(0.5044428514 0 0.2469462314)
(0.4070645983 0 0.2791173649)
(0.3512846872 0 0.3020827367)
(0.283700849 0 0.268125799)
(0.2075845328 0 0.1925118998)
(0.1518508896 0 0.1583215149)
(0.3191410716 0 -0.2293922996)
(0.300342974 0 -0.2006912985)
(0.2812325053 0 -0.1608764591)
(0.3195979123 0 -0.1262285556)
(0.3212686717 0 -0.09819880969)
(0.1333217044 0 -0.06664390586)
(0.3983455218 0 0.1080935708)
(0.4820199524 0 0.1442683629)
(0.6303929561 0 0.2078558297)
(0.6806437346 0 0.2760017699)
(0.8663325282 0 0.3368296558)
(0.5085625877 0 0.1626896535)
(0.4724948371 0 0.1947270658)
(0.3837521111 0 0.208403381)
(0.3009599786 0 0.2028684978)
(0.2434313935 0 0.1894060592)
(0.2136411869 0 0.1831779369)
(0.2645637076 0 -0.175564451)
(0.2959131501 0 -0.2239879353)
(0.6075701401 0 -0.5508262044)
(1.082978709 0 -0.8091169171)
(1.726383163 0 -0.1129626885)
(0.3410521524 0 0.1194625413)
(0.4874494236 0 0.1089701347)
(0.6159773734 0 0.1583906193)
(0.6219735186 0 0.2361407074)
(0.4198433372 0 0.2009281421)
(0.3868064106 0 0.1202318043)
(0.4100542053 0 0.1550627468)
(0.3550051568 0 0.1721996728)
(0.2867973551 0 0.1715764561)
(1.218940486 0 -0.6395837897)
(2.239002941 0 -0.09960727406)
(0.4755333789 0 0.2763108011)
(0.4896502305 0 0.08658478129)
(0.5849599027 0 0.1436965181)
(0.5366252182 0 0.2005648478)
(0.3514037249 0 0.1860041728)
(0.3353017639 0 0.1147887166)
(0.3636563617 0 0.1325354846)
(-0.6505685854 0 -0.1553553033)
(-0.6454571121 0 -0.1306122376)
(-0.6362298841 0 -0.1065358078)
(-0.5072766881 0 -0.1189166268)
(-0.9133096156 0 0.1116826093)
(-0.8932809924 0 0.1116994797)
(-0.8972723985 0 0.1674392371)
(-0.8544536768 0 0.1971961526)
(-0.8094647619 0 0.17983266)
(-0.8907358707 0 0.232900316)
(-1.245462853 0 0.4917050527)
(-1.088131515 0 0.4016486978)
(-1.251917125 0 0.5787838124)
(-1.162762596 0 0.6026830392)
(-1.12317074 0 0.5567537218)
(-1.075503419 0 0.6112330057)
(-1.023128044 0 0.6249167023)
(-1.04532441 0 0.6149806512)
(-1.038678307 0 0.6627358557)
(-1.085559977 0 0.7065113041)
(-1.093167262 0 0.704216386)
(-1.015996752 0 0.6351483681)
(-0.8873095413 0 0.5302768096)
(-0.6784333678 0 -0.2661770037)
(-0.7010297735 0 -0.2570878906)
(-0.6835501961 0 -0.23548218)
(-0.6511211495 0 -0.2127443199)
(-0.6688541043 0 -0.2117926174)
(-0.6408874755 0 -0.1910255408)
(-0.6434345349 0 -0.1690794566)
(-0.649437483 0 -0.1606984587)
(-0.791022816 0 0.4689937515)
(-0.6709273196 0 0.362452625)
(-0.6567289536 0 0.3538932898)
(-0.6029462166 0 0.3023992771)
(-0.6109560634 0 0.3008112866)
(-0.5893977847 0 0.2805154709)
(-0.6651844474 0 0.3336849563)
(-0.7119748855 0 0.3665777412)
(-0.3894059829 0 -0.2086417168)
(-0.4847626102 0 -0.2312323452)
(-0.5793927867 0 -0.2486936972)
(-0.5943201445 0 -0.2582528568)
(-0.8064419794 0 0.2710072373)
(-1.324328553 0 -0.3963259013)
(-1.162946838 0 -0.1323875634)
(-1.866226865 0 -0.859482099)
(-0.6184234512 0 -0.4627440431)
(-0.5104849047 0 -0.3622515535)
(-0.4425871218 0 -0.3033436396)
(-0.4070917971 0 -0.2610095287)
(-0.3768950959 0 -0.2071223737)
(-0.3727926055 0 -0.2042938687)
(-1.156241087 0 -0.7504594868)
(-0.7716044978 0 1.134845454)
(-2.144581345 0 1.239322126)
(-0.8597255613 0 1.438865021)
(-0.8933378848 0 1.268769365)
(-1.035297828 0 -0.8665878231)
(-0.9969696194 0 -0.8151716294)
(-0.8489391107 0 -0.6761485455)
(-0.5291293071 0 0.3983388626)
(-0.4641575239 0 0.377881512)
(-1.033847786 0 -0.9425510336)
(-1.146133039 0 -1.023362446)
(-1.105195278 0 -0.9656923293)
(-0.3362597494 0 0.3272532482)
(-0.2921630283 0 0.3034654937)
(-0.737464418 0 -0.745267766)
(-0.9176707182 0 -0.8818736808)
(-1.220046955 0 -1.14258844)
(-1.200324102 0 -1.096943758)
(-0.2709628055 0 0.2856934946)
(-0.216334719 0 0.2417922638)
(-0.2528457279 0 0.2746797674)
(-0.1782683485 0 0.2031315976)
(-0.2548837389 0 -0.5004489795)
(-0.3555239394 0 -0.5051230706)
(-0.588063452 0 -0.6553081658)
(-0.1585858893 0 0.1629690185)
(-0.1539261807 0 0.1590115789)
(-0.1444666906 0 0.1561443963)
(-0.3592712895 0 -0.7224092571)
(-0.1851835748 0 -0.333895505)
(-0.1758641693 0 0.1993102803)
(-0.8264199903 0 -1.844584844)
(-0.8543379891 0 -1.902450056)
(-0.749133108 0 -1.528306619)
(-0.1770941118 0 0.2542386478)
(-0.1538816314 0 0.2351947128)
(-0.1606337168 0 0.2124316296)
(0.3001372588 0 -0.982304718)
(0.3262592697 0 -1.04130425)
(0.3885224876 0 -1.023161925)
(-0.8010033924 0 -2.030201936)
(-0.1843150756 0 0.4662548732)
(-0.1527604517 0 0.4162886562)
(-0.1485577423 0 0.2862244767)
(-0.1453633636 0 0.4262149081)
(-0.03241793206 0 -0.1967228512)
(0.08820135381 0 -0.3972942941)
(-0.138146202 0 0.7343093772)
(-0.05097439167 0 -0.1891573052)
(-0.05486831762 0 -0.1923759815)
(-0.05306841759 0 -0.1844806179)
(-0.103240975 0 0.9218608684)
(-0.1142101338 0 0.9615265052)
(-0.03877773017 0 -0.2139234716)
(-0.04135870373 0 -0.2216959545)
(-0.04706434482 0 -0.2080013042)
(-0.1405735317 0 1.045336004)
(-0.1390998143 0 1.092133751)
(-0.158475611 0 1.070670277)
(-0.05028012156 0 -0.3305065738)
(-0.04635817772 0 -0.3004483441)
(-0.03955947552 0 -0.2384397328)
(0.1169308222 0 0.5088977151)
(0.1068146865 0 0.5104692558)
(-0.09334235036 0 1.017051143)
(0.07917757789 0 -0.3271497334)
(0.07561313319 0 -0.322384072)
(0.07878121857 0 -0.397404172)
(0.1195565709 0 0.345163531)
(0.1165915307 0 0.3462946368)
(0.1049526799 0 0.4051028832)
(0.2003892397 0 -0.5946373474)
(0.3180999698 0 -0.9621548605)
(0.1008754131 0 -0.338904792)
(0.1368019564 0 0.3079638993)
(0.1325224332 0 0.3068721892)
(0.1267225863 0 0.320911169)
(0.2601838119 0 -0.6463486765)
(0.3243491151 0 -0.8850205898)
(0.1087786106 0 0.245260268)
(0.1282855409 0 0.2814643146)
(0.2118126404 0 -0.4450952837)
(0.1991469371 0 -0.447971197)
(0.380117575 0 1.298567285)
(0.2309943639 0 -0.4545972287)
(0.2625634202 0 -0.465618177)
(0.2925772477 0 -0.4947527472)
(0.2790864029 0 -0.5133911657)
(0.5671796002 0 1.254074571)
(0.5212532237 0 1.208055544)
(0.4737943916 0 1.313454188)
(0.2938284042 0 -0.4374940278)
(0.3101721357 0 -0.4393099306)
(0.3037536976 0 -0.4685067612)
(0.4660272845 0 0.8287512022)
(0.4179618959 0 0.7970778836)
(0.5112024942 0 1.038477891)
(0.3365859367 0 -0.4137577212)
(0.3226265747 0 -0.423786865)
(0.09431675676 0 0.1942400889)
(0.3689446779 0 -0.4075250287)
(0.3771775293 0 -0.4067410486)
(0.3782930882 0 -0.4140716302)
(0.1078549905 0 0.1952605415)
(0.1009368101 0 0.1879290785)
(0.09371928114 0 0.1858030217)
(0.3836019206 0 -0.405736124)
(0.3878898527 0 -0.4008259559)
(0.3827912966 0 -0.3873704262)
(0.3893900397 0 -0.3967107826)
(0.4299418066 0 0.6809652568)
(0.3677031291 0 0.5938095384)
(0.1491959593 0 0.2440836252)
(0.3782193224 0 -0.3747938226)
(0.3806994968 0 -0.3825403352)
(0.5150133568 0 0.7195881468)
(0.4563515859 0 0.6969769669)
(0.3419715985 0 -0.3135960419)
(0.3454049545 0 -0.324670684)
(0.4460128082 0 0.5132537062)
(0.5195450276 0 0.6595359199)
(0.3333867821 0 -0.2698311546)
(0.3319700172 0 -0.2753890348)
(0.3343084959 0 -0.2604341587)
(0.3316113455 0 -0.2516301125)
(0.3422587776 0 -0.2649908187)
(0.2057192744 0 0.1805624504)
(0.1894183858 0 0.1754720538)
(0.1830745649 0 0.1795675967)
(0.1613498763 0 0.1661858705)
(0.2446356164 0 0.2586385631)
(0.3266268999 0 -0.2431882992)
(0.3096968229 0 -0.2195567171)
(0.2952245732 0 -0.2023681905)
(0.3109652302 0 -0.2163210727)
(0.245525981 0 0.1802097765)
(0.2319111475 0 0.185249898)
(0.225219495 0 0.1864450733)
(0.2567058739 0 -0.1711427337)
(0.3294396876 0 -0.2589935075)
(0.4578462708 0 -0.3816466253)
(0.41693306 0 -0.3627360636)
(0.6356960624 0 -0.5131904883)
(0.8665934349 0 -0.6343480088)
(0.838927559 0 -0.72367304)
(0.3753339414 0 0.1394667786)
(0.3619459444 0 0.1522836549)
(0.3864968331 0 0.1662128604)
(0.3429558562 0 0.1596736149)
(0.3151231266 0 0.1641457944)
(0.3142842588 0 0.1699222529)
(0.2634195916 0 0.1747731843)
(0.9274424165 0 -0.620332722)
(1.586589072 0 -0.5457617721)
(1.455167337 0 0.3593587634)
(1.465918811 0 0.3889920878)
(0.549412381 0 0.3144625963)
(0.3916440969 0 0.1361771574)
(0.3983279906 0 0.1262081417)
(0.4807078966 0 0.08781386734)
(0.5426870909 0 0.09031295894)
(0.554272992 0 0.08572408275)
(0.5660650542 0 0.1448690436)
(0.5480197063 0 0.1799121053)
(0.5794701529 0 0.1872197296)
(0.4922495084 0 0.1844259734)
(0.4164551894 0 0.1886850819)
(0.4475895565 0 0.199811089)
(0.3586112338 0 0.1860117853)
(0.3208189876 0 0.1332965143)
(0.356652818 0 0.1202507489)
(-0.646848985 0 -0.1474658396)
(-0.6363953686 0 -0.1276136474)
(-0.6357500379 0 -0.1158082965)
(-0.4908214202 0 -0.1237778354)
(-1.104441118 0 0.1666497663)
(-1.010448115 0 0.1448205802)
(-1.038382297 0 0.2124199823)
(-0.9675107781 0 0.2468000722)
(-0.9104283018 0 0.2203733406)
(-0.988432474 0 0.2912293844)
(-1.591447917 0 0.6986630542)
(-1.442881462 0 0.6052994907)
(-1.378295387 0 0.699363471)
(-1.147474871 0 0.6463131785)
(-1.179145322 0 0.6403937167)
(-1.00334119 0 0.6037758034)
(-0.9365647526 0 0.5918155625)
(-0.98466918 0 0.6205105474)
(-0.9147191618 0 0.6061271444)
(-0.9238029779 0 0.6342169662)
(-0.9918020668 0 0.6740041567)
(-0.9441071439 0 0.6445693436)
(-0.9032209382 0 0.5819744273)
(-0.9638957364 0 0.6115820709)
(-0.6355734028 0 -0.2499489631)
(-0.6474438944 0 -0.2401272051)
(-0.6737299167 0 -0.2486976005)