/*--------------------------------*- C++ -*----------------------------------*\
| =========                 |                                                 |
| \\      /  F ield         | OpenFOAM: The Open Source CFD Toolbox           |
|  \\    /   O peration     | Version:  2.1.x                                 |
|   \\  /    A nd           | Web:      www.OpenFOAM.org                      |
|    \\/     M anipulation  |                                                 |
\*---------------------------------------------------------------------------*/
FoamFile
{
    version     2.0;
    format      ascii;
    class       volScalarField;
    location    "0";
    object      ccx;
}
// * * * * * * * * * * * * * * * * * * * * * * * * * * * * * * * * * * * * * //

dimensions      [0 1 0 0 0 0 0];

internalField   nonuniform List<scalar> 
141400
(
0.01105685382
0.01187491955
0.01270798649
0.01353924317
0.01433879751
0.01105607597
0.01187470379
0.01270803693
0.01353964739
0.01433747236
0.01105606931
0.01187468932
0.01270802937
0.01353965062
0.01433742494
0.01105607416
0.01187468162
0.01270803054
0.01353965553
0.01433738725
0.01105607291
0.01187468028
0.01270803156
0.01353965769
0.01433738554
0.01105607201
0.01187468011
0.01270803181
0.01353965829
0.01433738687
0.0110560717
0.01187468
0.01270803186
0.0135396585
0.01433738716
0.01105607157
0.01187467992
0.01270803188
0.01353965861
0.01433738721
0.01105607149
0.01187467987
0.01270803189
0.01353965867
0.01433738723
0.01105607143
0.01187467985
0.0127080319
0.01353965871
0.01433738726
0.0110560714
0.01187467983
0.0127080319
0.01353965873
0.01433738727
0.01105607137
0.01187467983
0.0127080319
0.01353965875
0.01433738728
0.01105607136
0.01187467982
0.0127080319
0.01353965876
0.01433738729
0.01105607135
0.01187467982
0.0127080319
0.01353965876
0.01433738729
0.01105607134
0.01187467983
0.0127080319
0.01353965875
0.0143373873
0.01105607134
0.01187467984
0.0127080319
0.01353965874
0.01433738729
0.01105607136
0.01187467985
0.0127080319
0.01353965872
0.01433738729
0.0110560714
0.01187467988
0.01270803189
0.01353965868
0.01433738727
0.01105607147
0.01187467994
0.01270803187
0.0135396586
0.01433738726
0.01105607163
0.01187468004
0.01270803185
0.01353965846
0.01433738719
0.01105607212
0.01187468016
0.01270803174
0.01353965814
0.01433738656
0.01105607347
0.01187468047
0.01270803124
0.01353965708
0.01433738477
0.01105607349
0.01187468342
0.01270803008
0.01353965399
0.01433739307
0.01105606405
0.01187469603
0.01270803132
0.01353964874
0.01433746036
0.01105619553
0.0118747496
0.01270803297
0.01353957082
0.01433748289
0.007735572688
0.008482463157
0.009348936985
0.01018021233
0.01102741847
0.0118715825
0.01270907646
0.01354857591
0.01439955824
0.0152336155
0.01611141883
0.01688891793
0.007734937503
0.008481834945
0.009347208547
0.01017884942
0.01102670716
0.01187141751
0.01270911581
0.01354891916
0.0144008116
0.01523492406
0.01611125727
0.0168910495
0.007734789961
0.008481655879
0.009346900709
0.01017862036
0.01102652611
0.01187134763
0.01270913079
0.01354903531
0.01440101487
0.01523519108
0.0161115018
0.01689124439
0.007734773248
0.008481625748
0.009346839368
0.01017857843
0.01102648857
0.0118713247
0.01270913612
0.01354906642
0.01440104608
0.01523525063
0.01611154001
0.01689128427
0.007734770753
0.00848161713
0.009346821379
0.01017856117
0.0110264739
0.01187131643
0.01270913854
0.01354907828
0.01440106124
0.01523526942
0.01611155413
0.01689129133
0.007734769979
0.008481613971
0.009346814469
0.01017855308
0.01102646663
0.01187131287
0.01270913971
0.01354908384
0.01440106926
0.01523527693
0.0161115602
0.01689129309
0.00773476958
0.008481612604
0.00934681131
0.0101785493
0.01102646305
0.01187131111
0.01270914028
0.0135490866
0.01440107311
0.01523528041
0.01611156282
0.01689129397
0.00773476937
0.008481611915
0.009346809693
0.01017854738
0.01102646119
0.01187131017
0.01270914058
0.01354908804
0.01440107506
0.01523528221
0.01611156411
0.01689129446
0.007734769258
0.008481611536
0.009346808801
0.01017854632
0.01102646016
0.01187130965
0.01270914075
0.01354908885
0.01440107613
0.0152352832
0.01611156482
0.01689129473
0.007734769193
0.008481611317
0.009346808288
0.01017854571
0.01102645956
0.01187130935
0.01270914085
0.01354908932
0.01440107675
0.01523528377
0.01611156522
0.01689129489
0.007734769156
0.008481611189
0.009346807991
0.01017854536
0.01102645921
0.01187130918
0.01270914091
0.01354908959
0.01440107711
0.01523528409
0.01611156546
0.01689129499
0.007734769135
0.008481611118
0.009346807827
0.01017854516
0.01102645902
0.01187130908
0.01270914094
0.01354908974
0.01440107731
0.01523528427
0.0161115656
0.01689129504
0.007734769125
0.008481611085
0.009346807756
0.01017854509
0.01102645895
0.01187130904
0.01270914095
0.0135490898
0.01440107739
0.01523528435
0.01611156566
0.01689129508
0.007734769125
0.008481611085
0.009346807765
0.01017854511
0.01102645896
0.01187130905
0.01270914095
0.01354908979
0.01440107737
0.01523528433
0.01611156566
0.01689129509
0.007734769134
0.008481611119
0.009346807856
0.01017854523
0.01102645907
0.01187130911
0.01270914093
0.0135490897
0.01440107725
0.01523528422
0.01611156559
0.01689129507
0.007734769157
0.008481611199
0.009346808056
0.01017854548
0.01102645931
0.01187130923
0.01270914089
0.01354908952
0.01440107699
0.01523528399
0.01611156544
0.01689129503
0.007734769201
0.008481611349
0.009346808421
0.01017854593
0.01102645974
0.01187130945
0.01270914082
0.01354908918
0.01440107654
0.01523528358
0.01611156516
0.01689129494
0.007734769279
0.008481611615
0.009346809064
0.01017854672
0.0110264605
0.01187130983
0.0127091407
0.01354908859
0.01440107574
0.01523528286
0.01611156466
0.01689129476
0.007734769423
0.008481612097
0.009346810216
0.0101785481
0.01102646184
0.01187131051
0.01270914049
0.01354908755
0.01440107434
0.01523528157
0.01611156376
0.01689129444
0.007734769697
0.008481613015
0.009346812381
0.0101785507
0.01102646433
0.01187131176
0.01270914009
0.01354908562
0.0144010717
0.01523527916
0.01611156204
0.01689129383
0.007734770195
0.008481614961
0.009346816816
0.01017855607
0.01102646933
0.01187131419
0.01270913929
0.0135490818
0.01440106627
0.01523527426
0.01611155832
0.0168912927
0.007734771332
0.008481619785
0.009346827222
0.01017856778
0.01102647962
0.01187131938
0.01270913764
0.01354907386
0.014401055
0.01523526306
0.01611154941
0.0168912899
0.007734777719
0.008481634258
0.009346857786
0.01017859288
0.01102650155
0.01187133251
0.01270913423
0.01354905585
0.01440103415
0.01523523231
0.01611152693
0.01689127493
0.007734822015
0.008481700515
0.009346983168
0.01017867582
0.01102657495
0.01187137209
0.01270912559
0.01354899928
0.01440096974
0.01523511526
0.01611144047
0.01689118886
0.007735301901
0.008482191633
0.009347755945
0.01017929302
0.0110269705
0.01187149021
0.01270909902
0.0135487779
0.01440041555
0.01523448126
0.01611084011
0.01689063205
0.006072596785
0.00681042173
0.007676721581
0.008509001641
0.009345682726
0.01018431394
0.01102622593
0.01186916635
0.01271001933
0.01355177018
0.01439527786
0.01523482613
0.01607398621
0.016905998
0.01774029368
0.01857681968
0.006071013713
0.006809135713
0.007673951227
0.008507439883
0.009344743528
0.0101837518
0.01102590827
0.01186906447
0.01271004711
0.01355196174
0.01439573026
0.01523551921
0.01607528618
0.016907935
0.01774362457
0.01857876388
0.006070886648
0.006808724097
0.007673315567
0.008506829866
0.009344265162
0.0101834224
0.01102570483
0.01186898528
0.01271006905
0.01355209634
0.01439599701
0.01523591619
0.01607584003
0.0169085821
0.01774421681
0.01857900778
0.006070874887
0.006808648131
0.007673162421
0.008506638422
0.009344086376
0.01018328514
0.01102561409
0.01186894527
0.01271008037
0.01355216008
0.01439611004
0.01523607633
0.01607602757
0.01690876578
0.01774433696
0.01857904807
0.006070871663
0.006808625951
0.007673112525
0.008506569305
0.009344014924
0.01018322536
0.01102557238
0.01186892618
0.012710086
0.0135521901
0.01439616082
0.0152361432
0.0160760992
0.0169088283
0.01774437345
0.01857905813
0.006070870275
0.006808617301
0.007673092472
0.008506540124
0.009343982828
0.0101831968
0.01102555157
0.01186891658
0.01271008895
0.01355220529
0.01439618579
0.01523617411
0.01607613051
0.01690885382
0.01774438774
0.0185790617
0.006070869648
0.006808613377
0.007673083194
0.008506526198
0.009343966944
0.01018318213
0.01102554057
0.01186891147
0.01271009057
0.01355221339
0.01439619883
0.01523618969
0.01607614573
0.01690886579
0.01774439429
0.01857906335
0.00607086934
0.0068086114
0.007673078448
0.00850651893
0.009343958478
0.01018317415
0.01102553449
0.01186890862
0.01271009148
0.01355221791
0.01439620599
0.01523619808
0.01607615375
0.01690887198
0.01774439761
0.0185790642
0.006070869175
0.006808610323
0.007673075845
0.008506514896
0.009343953716
0.0101831696
0.011025531
0.01186890697
0.01271009201
0.01355222053
0.0143962101
0.01523620284
0.01607615823
0.01690887539
0.01774439942
0.01857906466
0.006070869081
0.006808609709
0.007673074359
0.008506512575
0.009343950952
0.01018316694
0.01102552894
0.01186890599
0.01271009233
0.01355222207
0.01439621251
0.01523620561
0.01607616082
0.01690887735
0.01774440046
0.01857906492
0.006070869027
0.006808609354
0.007673073506
0.008506511236
0.009343949348
0.01018316539
0.01102552774
0.01186890542
0.01271009251
0.01355222297
0.01439621392
0.01523620722
0.01607616232
0.01690887848
0.01774440105
0.01857906508
0.006070868997
0.006808609159
0.007673073046
0.008506510512
0.009343948478
0.01018316455
0.01102552708
0.01186890511
0.01271009262
0.01355222347
0.01439621468
0.0152362081
0.01607616313
0.01690887908
0.01774440137
0.01857906517
0.006070868984
0.006808609075
0.007673072862
0.008506510223
0.00934394813
0.01018316421
0.01102552682
0.01186890499
0.01271009266
0.01355222367
0.01439621499
0.01523620845
0.01607616346
0.01690887933
0.0177444015
0.01857906521
0.006070868986
0.006808609084
0.007673072911
0.008506510303
0.009343948226
0.01018316431
0.01102552689
0.01186890502
0.01271009265
0.01355222362
0.01439621491
0.01523620835
0.01607616337
0.01690887927
0.01774440146
0.01857906522
0.006070869003
0.006808609193
0.007673073206
0.008506510771
0.00934394879
0.01018316486
0.01102552732
0.01186890523
0.01271009259
0.0135522233
0.01439621442
0.01523620779
0.01607616285
0.01690887888
0.01774440126
0.01857906518
0.006070869039
0.006808609431
0.007673073822
0.008506511743
0.009343949957
0.01018316599
0.0110255282
0.01186890565
0.01271009246
0.01355222265
0.01439621339
0.01523620662
0.01607616177
0.01690887807
0.01774440084
0.01857906509
0.006070869106
0.006808609868
0.007673074924
0.008506513475
0.009343952027
0.01018316799
0.01102552975
0.01186890638
0.01271009222
0.01355222149
0.01439621159
0.01523620455
0.01607615984
0.01690887662
0.01774440008
0.01857906492
0.006070869225
0.006808610641
0.007673076846
0.008506516474
0.009343955587
0.01018317141
0.01102553238
0.01186890763
0.01271009183
0.01355221953
0.01439620851
0.015236201
0.0160761565
0.0169088741
0.01774439875
0.01857906461
0.006070869441
0.006808612038
0.007673080271
0.008506521765
0.009343961803
0.01018317732
0.01102553691
0.01186890977
0.01271009115
0.01355221617
0.0143962032
0.01523619482
0.01607615065
0.01690886963
0.01774439637
0.01857906403
0.006070869859
0.006808614704
0.0076730867
0.00850653155
0.009343973117
0.01018318791
0.01102554494
0.01186891352
0.01271008997
0.01355221024
0.01439619374
0.01523618366
0.01607613991
0.01690886129
0.01774439187
0.01857906291
0.006070870737
0.006808620224
0.007673099804
0.008506551038
0.009343995064
0.01018320792
0.01102555979
0.0118689204
0.01271008782
0.01355219935
0.01439617607
0.0152361623
0.01607611877
0.01690884447
0.01774438262
0.01857906064
0.006070872741
0.006808633216
0.007673129927
0.008506594163
0.009344041447
0.01018324825
0.01102558869
0.01186893369
0.01271008382
0.01355217841
0.01439614121
0.01523611814
0.01607607306
0.01690880637
0.01774436103
0.01857905526
0.006070878378
0.006808671633
0.00767321243
0.008506704267
0.00934415096
0.01018333653
0.01102564886
0.01186896095
0.01271007597
0.01355213552
0.01439606734
0.0152360175
0.01607596135
0.01690870459
0.01774429941
0.01857903736
0.00607091173
0.006808834765
0.007673503648
0.008507036795
0.009344440574
0.01018354833
0.01102578443
0.0118690182
0.01271005998
0.01355204231
0.01439589509
0.01523576567
0.01607564641
0.0169083726
0.01774405731
0.01857894775
0.006071383138
0.006809886036
0.007674898392
0.008508105084
0.009345179722
0.01018402493
0.01102606621
0.01186911828
0.01271003246
0.01355186397
0.0143955111
0.01523518423
0.01607472128
0.01690715697
0.01774257203
0.01857819029
0.005164646489
0.006001330669
0.006840108163
0.007675390229
0.008510569641
0.009347395498
0.01018634826
0.01102703553
0.01186876014
0.01271026019
0.01355195398
0.01439342347
0.01523326134
0.01607133322
0.01690699985
0.01774220669
0.0185775631
0.01945713201
0.02016223366
0.005161902469
0.005997282678
0.006837949865
0.007674169741
0.008509855778
0.009346958469
0.01018608616
0.01102688814
0.01186870351
0.01271027687
0.01355205192
0.01439362437
0.01523359852
0.01607189609
0.01690792276
0.01774381554
0.01858041372
0.01945941145
0.02016451401
0.005161583782
0.005996496492
0.006837064634
0.007673429901
0.008509304617
0.009346571064
0.01018583142
0.01102673733
0.01186864259
0.01271029506
0.01355215422
0.01439382416
0.01523391449
0.01607236218
0.01690856657
0.01774464324
0.01858130866
0.01945993709
0.0201647147
0.005161524731
0.005996324638
0.006836775523
0.007673114489
0.008509021982
0.009346346425
0.01018567078
0.01102663704
0.01186860012
0.01271030786
0.0135522239
0.01439395341
0.01523410677
0.01607261713
0.01690887069
0.01774495568
0.01858155405
0.01946003131
0.02016474876
0.005161511147
0.005996268813
0.00683666825
0.007672979665
0.008508886331
0.009346228556
0.01018558065
0.01102657817
0.01186857445
0.01271031571
0.01355226552
0.01439402769
0.01523421137
0.01607274539
0.0169090089
0.01774508033
0.01858163846
0.01946006053
0.02016475461
0.005161506765
0.005996246008
0.00683662212
0.007672917274
0.008508819007
0.009346166389
0.01018553069
0.01102654437
0.01186855945
0.01271032039
0.01355228975
0.01439406968
0.015234268
0.01607281109
0.01690907517
0.01774513589
0.01858167357
0.01946007238
0.02016475597
0.005161504719
0.005996235415
0.006836599899
0.007672885927
0.008508783679
0.009346132417
0.01018550242
0.01102652477
0.01186855064
0.01271032318
0.01355230395
0.01439409378
0.01523429951
0.01607284628
0.01690910919
0.0177451632
0.01858169015
0.01946007781
0.02016475663
0.005161503642
0.005996230004
0.006836588267
0.007672869075
0.008508764145
0.00934611312
0.01018548598
0.01102651317
0.01186854538
0.01271032486
0.01355231241
0.01439410793
0.01523431763
0.016072866
0.01690912774
0.01774517768
0.01858169873
0.01946008055
0.020164757
0.005161503051
0.005996227042
0.006836581809
0.007672859555
0.008508752899
0.009346101807
0.01018547619
0.01102650619
0.0118685422
0.01271032589
0.01355231754
0.01439411641
0.01523432835
0.01607287747
0.01690913831
0.01774518579
0.01858170345
0.01946008204
0.0201647572
0.005161502713
0.005996225354
0.006836578097
0.007672854017
0.008508746274
0.009346095058
0.01018547029
0.01102650194
0.01186854025
0.01271032652
0.01355232066
0.01439412155
0.01523433478
0.01607288426
0.0169091445
0.01774519047
0.01858170615
0.01946008289
0.02016475732
0.005161502516
0.005996224387
0.006836575959
0.007672850802
0.008508742394
0.009346091073
0.01018546678
0.01102649941
0.01186853909
0.0127103269
0.01355232254
0.01439412462
0.01523433859
0.01607288826
0.01690914811
0.01774519318
0.0185817077
0.01946008339
0.02016475738
0.005161502405
0.005996223867
0.006836574804
0.007672849059
0.008508740279
0.009346088889
0.01018546485
0.01102649801
0.01186853845
0.01271032711
0.01355232358
0.01439412632
0.01523434069
0.01607289045
0.01690915007
0.01774519465
0.01858170854
0.01946008365
0.02016475742
0.005161502355
0.005996223661
0.006836574346
0.007672848366
0.008508739436
0.009346088017
0.01018546408
0.01102649745
0.01186853819
0.0127103272
0.013552324
0.014394127
0.01523434153
0.01607289132
0.01690915086
0.01774519524
0.01858170887
0.01946008377
0.02016475743
0.005161502355
0.005996223718
0.006836574477
0.007672848566
0.008508739681
0.009346088271
0.0101854643
0.01102649761
0.01186853827
0.01271032718
0.01355232388
0.01439412681
0.01523434129
0.01607289108
0.01690915064
0.01774519508
0.01858170878
0.01946008375
0.02016475743
0.005161502408
0.005996224056
0.00683657523
0.007672849708
0.008508741071
0.00934608971
0.01018546558
0.01102649854
0.0118685387
0.01271032705
0.01355232321
0.01439412571
0.01523433992
0.01607288965
0.01690914936
0.01774519413
0.01858170825
0.01946008359
0.0201647574
0.005161502531
0.005996224757
0.00683657679
0.007672852064
0.008508743925
0.009346092651
0.01018546818
0.01102650042
0.01186853957
0.01271032677
0.01355232183
0.01439412345
0.01523433712
0.01607288672
0.01690914673
0.01774519216
0.01858170712
0.01946008325
0.02016475736
0.005161502761
0.005996226013
0.006836579567
0.00767285623
0.008508748937
0.009346097783
0.01018547268
0.01102650367
0.01186854106
0.0127103263
0.01355231945
0.01439411954
0.01523433224
0.01607288159
0.01690914208
0.01774518866
0.01858170512
0.01946008263
0.02016475727
0.005161503175
0.005996228205
0.006836584378
0.007672863377
0.008508757447
0.009346106408
0.0101854802
0.01102650906
0.01186854353
0.01271032552
0.01355231552
0.01439411303
0.01523432408
0.01607287291
0.01690913414
0.01774518262
0.01858170163
0.01946008155
0.02016475712
0.005161503931
0.005996232115
0.006836592867
0.007672875814
0.008508772029
0.009346120971
0.01018549272
0.01102651795
0.01186854759
0.01271032423
0.01355230903
0.01439410224
0.01523431036
0.01607285814
0.01690912041
0.01774517202
0.01858169543
0.0194600796
0.02016475685
0.005161505358
0.005996239466
0.006836608552
0.007672898316
0.008508797826
0.00934614618
0.01018551399
0.01102653286
0.01186855433
0.01271032211
0.01355229822
0.01439408403
0.01523428685
0.01607283228
0.01690909583
0.01774515264
0.01858168386
0.0194600759
0.02016475636
0.00516150818
0.005996254452
0.006836639633
0.007672941487
0.008508845655
0.009346191424
0.01018555111
0.01102655834
0.01186856573
0.01271031855
0.01355227987
0.01439405262
0.01523424524
0.0160727851
0.01690904945
0.01774511479
0.01858166057
0.01946006827
0.02016475548
0.005161514974
0.005996288635
0.006836707568
0.007673030895
0.008508939489
0.009346275924
0.0101856176
0.01102660266
0.01186858526
0.01271031254
0.01355224833
0.01439399725
0.01523416918
0.01607269479
0.01690895591
0.01774503416
0.01858160839
0.01946005058
0.02016475321
0.005161540317
0.005996381136
0.006836877138
0.00767323286
0.008509133383
0.009346438126
0.010185738
0.0110266797
0.01186861846
0.01271030248
0.01355219432
0.01439389918
0.01523402756
0.01607251517
0.01690875402
0.01774484261
0.01858147162
0.01946000077
0.02016474055
0.005161666884
0.005996718532
0.006837371449
0.007673717841
0.00850953534
0.009346740408
0.01018594594
0.01102680622
0.01186867097
0.01271028676
0.0135521074
0.01439373407
0.01523377443
0.0160721631
0.01690830604
0.017744338
0.01858102418
0.01945979849
0.02016466522
0.005162662702
0.005998579819
0.006838879192
0.007674768165
0.008510231878
0.009347196858
0.01018623228
0.01102697126
0.01186873577
0.01271026753
0.01355199695
0.01439351216
0.01523341265
0.01607159509
0.01690745127
0.01774306689
0.0185792957
0.0194583981
0.02016398868
0.004338601542
0.005183731395
0.006006257607
0.006840128233
0.007675460002
0.008511607635
0.009348988193
0.01018786204
0.01102798708
0.01186899054
0.0127102329
0.01355144983
0.01439211027
0.01523168501
0.01606984697
0.01690655537
0.01774228939
0.01857711145
0.01940793014
0.02022399672
0.02103360006
0.004335162059
0.005180396873
0.006004352832
0.006839090639
0.007674860071
0.008511243245
0.009348760489
0.01018772182
0.01102790781
0.01186895806
0.01271024281
0.01355150417
0.01439221716
0.01523186471
0.0160701347
0.01690702023
0.01774307322
0.01857850823
0.01941048919
0.02022869542
0.0210356193
0.004334635609
0.005179348775
0.006003343683
0.006838299218
0.007674289021
0.008510844484
0.009348488706
0.01018754475
0.01102780386
0.01186891535
0.012710256
0.01355157553
0.01439235507
0.01523208556
0.01607046514
0.01690749884
0.01774374972
0.01857941777
0.01941155399
0.02022958986
0.02103580606
0.004334545805
0.005179057981
0.006002950482
0.006837896532
0.007673937897
0.008510564829
0.009348280275
0.01018740048
0.01102771572
0.01186887831
0.0127102675
0.01355163681
0.01439246985
0.01523226065
0.01607070843
0.01690781516
0.01774413127
0.01857982716
0.01941190762
0.02022978617
0.02103582687
0.00433451836
0.005178958634
0.006002789691
0.006837703608
0.007673746343
0.008510396202
0.009348144908
0.01018730163
0.01102765313
0.01186885146
0.01271027591
0.01355168088
0.01439255004
0.0152323777
0.01607086108
0.01690799723
0.01774432706
0.01858000888
0.01941204014
0.02022984794
0.02103583365
0.004334507471
0.005178917795
0.006002716844
0.006837607773
0.007673642899
0.008510298492
0.009348061927
0.01018723838
0.01102761188
0.01186883348
0.0127102816
0.01355171024
0.0143926022
0.01523245111
0.0160709522
0.01690809924
0.01774442859
0.0185800951
0.01941209732
0.02022987233
0.0210358364
0.004334502574
0.005178898599
0.006002680689
0.006837557457
0.007673585567
0.00851024164
0.009348011619
0.01018719876
0.01102758544
0.01186882182
0.01271028532
0.01355172922
0.01439263529
0.0152324964
0.01607100637
0.01690815722
0.01774448338
0.01858013909
0.0194121249
0.02022988351
0.02103583757
0.004334500115
0.005178888694
0.006002661418
0.006837529652
0.007673552719
0.008510207946
0.009347980912
0.010187174
0.01102756864
0.01186881434
0.01271028773
0.01355174137
0.01439265618
0.0152325244
0.01607103896
0.01690819101
0.01774451421
0.01858016295
0.01941213935
0.02022988919
0.02103583814
0.004334498778
0.005178883251
0.006002650602
0.006837513665
0.007673533358
0.008510187611
0.009347961983
0.01018715846
0.01102755797
0.01186880956
0.01271028927
0.01355174912
0.01439266938
0.01523254181
0.01607105885
0.01690821116
0.01774453215
0.0185801765
0.01941214737
0.0202298923
0.02103583845
0.004334498018
0.005178880146
0.006002644344
0.006837504263
0.007673521774
0.008510175238
0.009347950292
0.01018714875
0.01102755124
0.01186880654
0.01271029026
0.01355175403
0.01439267767
0.01523255264
0.01607107105
0.01690822333
0.0177445428
0.01858018441
0.01941215198
0.02022989406
0.02103583863
0.004334497581
0.005178878368
0.006002640726
0.006837498766
0.00767351492
0.008510167833
0.009347943222
0.01018714283
0.01102754711
0.01186880467
0.01271029087
0.01355175705
0.01439268275
0.01523255923
0.01607107839
0.01690823057
0.01774454906
0.018580189
0.01941215463
0.02022989507
0.02103583873
0.004334497343
0.005178877412
0.00600263877
0.006837495774
0.007673511161
0.008510163741
0.009347939288
0.01018713952
0.0110275448
0.01186880363
0.01271029121
0.01355175875
0.0143926856
0.0152325629
0.01607108246
0.01690823455
0.01774455249
0.0185801915
0.01941215606
0.02022989561
0.02103583878
0.004334497242
0.005178877035
0.006002637997
0.006837494586
0.007673509662
0.008510162102
0.009347937707
0.01018713818
0.01102754386
0.01186880321
0.01271029136
0.01355175945
0.01439268676
0.01523256439
0.0160710841
0.01690823616
0.01774455386
0.0185801925
0.01941215664
0.02022989583
0.0210358388
0.004334497258
0.005178877145
0.006002638226
0.006837494938
0.007673510106
0.008510162588
0.009347938177
0.01018713858
0.01102754414
0.01186880334
0.01271029133
0.01355175925
0.01439268643
0.01523256396
0.01607108363
0.0169082357
0.01774455347
0.01858019221
0.01941215648
0.02022989577
0.0210358388
0.004334497396
0.005178877771
0.006002639513
0.006837496912
0.007673512592
0.008510165302
0.009347940792
0.01018714079
0.01102754569
0.01186880404
0.01271029111
0.01355175814
0.01439268455
0.01523256154
0.01607108095
0.01690823308
0.01774455123
0.01858019059
0.01941215555
0.02022989543
0.02103583876
0.004334497694
0.005178879068
0.006002642168
0.006837500963
0.007673517666
0.008510170809
0.009347946072
0.01018714523
0.01102754879
0.01186880545
0.01271029067
0.01355175589
0.01439268077
0.01523255665
0.01607107552
0.01690822774
0.01774454663
0.01858018723
0.01941215363
0.0202298947
0.02103583869
0.00433449824
0.005178881387
0.006002646876
0.006837508083
0.0076735265
0.008510180309
0.009347955103
0.01018715277
0.01102755404
0.01186880783
0.01271028992
0.01355175209
0.01439267435
0.0152325483
0.01607106616
0.01690821848
0.01774453858
0.0185801813
0.01941215019
0.0202298934
0.02103583856
0.004334499207
0.005178885429
0.006002654984
0.006837520186
0.007673541308
0.008510196014
0.009347969849
0.01018716495
0.01102756246
0.01186881162
0.01271028871
0.013551746
0.01439266401
0.01523253473
0.01607105079
0.01690820304
0.01774452498
0.01858017114
0.01941214424
0.02022989111
0.02103583834
0.004334500956
0.005178892624
0.006002669172
0.006837540959
0.00767356621
0.008510221909
0.009347993737
0.01018718441
0.01102757576
0.01186881757
0.01271028682
0.0135517364
0.01439264759
0.0152325129
0.01607102565
0.01690817733
0.01774450186
0.01858015352
0.01941213373
0.02022988703
0.02103583793
0.004334504299
0.005178906075
0.006002695033
0.006837577749
0.007673609033
0.008510265212
0.009348032706
0.01018721552
0.01102759672
0.01186882687
0.01271028387
0.01355172134
0.01439262152
0.01523247764
0.01607098413
0.01690813371
0.0177444615
0.01858012183
0.0194121143
0.02022987932
0.02103583714
0.004334511315
0.005178933208
0.006002745148
0.00683764598
0.007673685068
0.008510339072
0.009348096912
0.01018726537
0.01102762965
0.01186884134
0.01271027931
0.01355169784
0.01439258019
0.01523242038
0.01607091453
0.0169080578
0.01774438823
0.01858006171
0.01941207584
0.02022986347
0.02103583542
0.004334527904
0.005178994377
0.006002850572
0.006837779739
0.00767382454
0.008510466891
0.009348202809
0.01018734456
0.01102768062
0.01186886341
0.01271027241
0.01355166181
0.01439251546
0.01523232776
0.01607079704
0.01690792263
0.01774424932
0.01857993953
0.01941199195
0.02022982661
0.02103583122
0.004334574192
0.005179156306
0.006003095973
0.006838056044
0.007674084234
0.008510685672
0.009348372628
0.01018746552
0.01102775594
0.01186889543
0.01271026246
0.01355160915
0.01439241831
0.01523218299
0.01607060271
0.01690768182
0.01774397737
0.01857967181
0.01941178366
0.02022972372
0.02103582021
0.00433476706
0.005179687721
0.006003723682
0.006838630927
0.007674545109
0.008511031109
0.009348619321
0.01018763131
0.01102785526
0.01186893671
0.01271024971
0.0135515406
0.01439228787
0.01523197919
0.01607030927
0.01690728053
0.01774345748
0.01857905739
0.01941118369
0.02022933863
0.02103576931
0.004336301546
0.005181719452
0.006005251583
0.006839637276
0.00767519461
0.008511452943
0.009348893827
0.0101878048
0.01102795515
0.01186897741
0.01271023721
0.01355147239
0.01439215422
0.01523175993
0.01606996868
0.01690675815
0.01774264967
0.01857781017
0.01940938443
0.02022719998
0.02103503126
0.003504447301
0.004350749576
0.005179606204
0.006008232743
0.006840871963
0.007675921262
0.008512395718
0.0093500887
0.01018894221
0.01102876906
0.01186930739
0.01271015224
0.01355092405
0.01439115693
0.01523055766
0.01606885794
0.016905958
0.01774177689
0.0185758261
0.01940648304
0.02023424966
0.02106386036
0.02184961044
0.003500547008
0.004347150247
0.005177852462
0.006007283793
0.006840324305
0.00767558946
0.008512186896
0.009349955164
0.01018885828
0.01102872149
0.01186928745
0.01271015848
0.01355095698
0.01439122121
0.01523066377
0.01606902508
0.01690622044
0.01774220104
0.01857654333
0.01940776207
0.02023675234
0.02106898422
0.02185211418
0.003499967103
0.004345955917
0.005176758605
0.006006460187
0.006839739665
0.007675183858
0.008511907841
0.009349765949
0.01018873488
0.01102864901
0.01186925754
0.0127101679
0.013551007
0.01439131744
0.01523081751
0.01606925549
0.01690655735
0.01774268907
0.0185772413
0.01940872452
0.02023794938
0.02106998291
0.02185232709
0.003499863673
0.004345608808
0.00517628368
0.006005993152
0.006839339589
0.007674866247
0.008511667556
0.009349591937
0.01018861621
0.01102857721
0.01186922746
0.0127101774
0.013551057
0.01439141143
0.01523096245
0.01606946114
0.01690683519
0.0177430484
0.01857767936
0.01940920798
0.02023838232
0.0210702064
0.02185235776
0.003499834268
0.004345486294
0.005176078108
0.006005752497
0.006839102717
0.007674656676
0.00851149547
0.009349459578
0.01018852199
0.01102851855
0.01186920251
0.01271018534
0.01355109825
0.01439148724
0.0152310753
0.01606961327
0.01690702675
0.01774327381
0.01857792222
0.01940943711
0.0202385514
0.02107027762
0.02185236462
0.00349982296
0.004345434953
0.005175982225
0.006005627389
0.006838967208
0.007674526778
0.008511381714
0.009349367611
0.01018845406
0.01102847519
0.01186918381
0.01271019132
0.01355112901
0.01439154267
0.01523115528
0.01606971654
0.01690714958
0.01774340828
0.01857805485
0.01940954993
0.02023862584
0.02107030614
0.02185236701
0.003499817746
0.004345410585
0.005175933869
0.006005559813
0.006838889096
0.007674447456
0.008511308791
0.009349306299
0.0101884074
0.01102844478
0.01186917056
0.01271019558
0.01355115074
0.01439158119
0.01523120947
0.01606978413
0.01690722651
0.01774348813
0.01857812888
0.01940960877
0.02023866214
0.02107031937
0.02185236817
0.003499815096
0.004345397955
0.005175907859
0.006005521792
0.006838843138
0.007674398817
0.008511262434
0.009349266134
0.01018837611
0.01102842406
0.01186916145
0.01271019853
0.01355116563
0.01439160726
0.01523124541
0.01606982777
0.01690727456
0.01774353612
0.01857817147
0.01940964112
0.02023868128
0.02107032613
0.02185236877
0.003499813658
0.004345390997
0.005175893185
0.006005499679
0.006838815561
0.007674368751
0.008511233005
0.009349240056
0.01018835543
0.01102841019
0.01186915531
0.01271020052
0.01355117565
0.01439162461
0.01523126897
0.01606985581
0.01690730467
0.01774356535
0.01857819664
0.01940965966
0.02023869195
0.02107032983
0.0218523691
0.003499812842
0.004345387024
0.00517588467
0.006005486576
0.00683879886
0.007674350151
0.008511214441
0.009349223328
0.01018834199
0.0110284011
0.01186915127
0.01271020184
0.01355118225
0.01439163595
0.01523128419
0.01606987364
0.01690732349
0.01774358324
0.01857821172
0.01940967053
0.0202386981
0.02107033192