/*--------------------------------*- C++ -*----------------------------------*\
| =========                 |                                                 |
| \\      /  F ield         | OpenFOAM: The Open Source CFD Toolbox           |
|  \\    /   O peration     | Version:  2.1.x                                 |
|   \\  /    A nd           | Web:      www.OpenFOAM.org                      |
|    \\/     M anipulation  |                                                 |
\*---------------------------------------------------------------------------*/
FoamFile
{
    version     2.0;
    format      ascii;
    class       volScalarField;
    location    "0";
    object      ccy;
}
// * * * * * * * * * * * * * * * * * * * * * * * * * * * * * * * * * * * * * //

dimensions      [0 1 0 0 0 0 0];

internalField   nonuniform List<scalar> 
141400
(
0.0001172167577
0.0001175529325
0.0001176439801
0.0001173867296
0.0001170707257
0.0005925199772
0.0005926198817
0.0005926268566
0.00059258728
0.0005928119426
0.001080599039
0.001080607048
0.001080596443
0.001080616542
0.00108091639
0.001582841435
0.001582857934
0.00158285666
0.001582857117
0.001583213641
0.00209978564
0.002099804709
0.002099805159
0.002099801834
0.002100174046
0.002631875393
0.002631894829
0.002631895188
0.002631892041
0.002632274303
0.003179556366
0.003179576279
0.003179576581
0.003179573498
0.003179966671
0.003743285576
0.003743306078
0.003743306385
0.003743303218
0.003743707881
0.00432353329
0.004323554401
0.004323554719
0.004323551453
0.004323967969
0.004920783545
0.004920805278
0.004920805606
0.004920802242
0.00492123096
0.005535534562
0.005535556933
0.005535557271
0.005535553807
0.005535995086
0.006168299156
0.006168322182
0.00616832253
0.006168318965
0.006168773175
0.006819605165
0.006819628865
0.006819629223
0.006819625554
0.006820093076
0.007489995898
0.007490020291
0.00749002066
0.007490016882
0.007490498107
0.008180030579
0.008180055686
0.008180056065
0.008180052177
0.008180547506
0.008890284823
0.008890310664
0.008890311055
0.008890307053
0.008890816898
0.009621351108
0.009621377707
0.009621378109
0.009621373989
0.009621898776
0.01037383928
0.01037386666
0.01037386708
0.01037386283
0.010374403
0.01114837707
0.01114840526
0.01114840569
0.01114840132
0.0111489573
0.01194561059
0.0119456396
0.01194564003
0.01194563555
0.01194620776
0.01276620494
0.01276623472
0.01276623509
0.01276623065
0.01276681921
0.01361084509
0.01361087609
0.01361087664
0.01361087169
0.01361147734
0.01448023994
0.01448027498
0.01448027814
0.01448026735
0.01448090071
0.01537514755
0.01537518203
0.01537519024
0.01537517015
0.01537586459
0.0162964016
0.01629618598
0.01629613049
0.01629628696
0.01629691038
0.0001170983284
0.0001181627402
0.0001179353575
0.0001180203795
0.0001177759058
0.000117733552
0.0001177436939
0.0001177279096
0.0001179505351
0.0001179718909
0.0001178567774
0.000117611546
0.0005928027002
0.0005924652299
0.0005915157422
0.0005915957652
0.0005916299559
0.0005916579556
0.0005916677863
0.0005916422705
0.0005916169136
0.0005915556198
0.000592014631
0.0005924540342
0.001080901767
0.001080461167
0.001079430949
0.001079434379
0.001079498193
0.001079523089
0.001079524518
0.001079516585
0.001079463831
0.001079426435
0.001079983547
0.001080503689
0.00158320968
0.001582791937
0.001581712568
0.001581710629
0.001581721126
0.001581727729
0.001581728262
0.001581725728
0.001581715014
0.001581709923
0.00158229566
0.001582814219
0.002100173694
0.002099751931
0.002098645846
0.002098644873
0.002098644055
0.002098644837
0.002098645056
0.002098644428
0.002098644316
0.002098645191
0.002099243406
0.002099770558
0.002632274402
0.002631840761
0.002630705051
0.002630704622
0.002630703873
0.002630703813
0.00263070386
0.002630703777
0.002630704221
0.002630704842
0.002631318425
0.00263185984
0.003179966784
0.00317952042
0.003178352067
0.003178351853
0.003178351569
0.003178351486
0.003178351486
0.003178351504
0.003178351701
0.003178351964
0.003178983027
0.003179540092
0.003743708
0.003743248601
0.003742046174
0.003742046061
0.003742045916
0.003742045862
0.003742045855
0.003742045879
0.003742045985
0.00374204612
0.003742695528
0.003743268825
0.004323968092
0.004323495264
0.004322257678
0.004322257619
0.004322257528
0.004322257494
0.004322257489
0.004322257505
0.004322257572
0.004322257651
0.004322926016
0.004323516063
0.004921231086
0.004920744417
0.004919470608
0.004919470579
0.004919470521
0.004919470501
0.004919470499
0.004919470508
0.00491947055
0.004919470598
0.004920158506
0.004920765817
0.005535995214
0.005535494293
0.005534183182
0.005534183172
0.005534183133
0.005534183124
0.005534183123
0.005534183127
0.005534183153
0.005534183181
0.005534891223
0.005535516316
0.006168773303
0.006168257708
0.006166908194
0.006166908196
0.006166908171
0.006166908168
0.006166908168
0.006166908169
0.006166908185
0.006166908199
0.006167636974
0.006168280374
0.006820093204
0.006819562504
0.006818173456
0.006818173468
0.006818173452
0.006818173455
0.006818173456
0.006818173454
0.006818173462
0.006818173467
0.006818923585
0.006819585832
0.007490498234
0.007489951987
0.007488522246
0.007488522266
0.007488522259
0.007488522267
0.007488522269
0.007488522264
0.007488522265
0.007488522261
0.00748929435
0.007489975997
0.008180547633
0.008179985382
0.008178513757
0.008178513787
0.008178513789
0.008178513803
0.008178513805
0.008178513797
0.008178513791
0.008178513777
0.008179308479
0.008180010094
0.008890817024
0.008890238302
0.00888872357
0.008888723614
0.008888723629
0.008888723649
0.008888723653
0.008888723641
0.008888723625
0.008888723598
0.008889541571
0.008890263737
0.009621898901
0.009621303229
0.009619744137
0.009619744201
0.009619744235
0.009619744265
0.00961974427
0.009619744254
0.009619744223
0.009619744175
0.009620586092
0.009621329404
0.01037440312
0.01037379001
0.01037218528
0.01037218538
0.01037218544
0.01037218549
0.01037218549
0.01037218547
0.01037218542
0.01037218534
0.01037305188
0.01037381695
0.01114895743
0.01114832638
0.01114667472
0.01114667488
0.011146675
0.01114667507
0.01114667507
0.01114667505
0.01114667495
0.0111466748
0.01114756666
0.01114835409
0.01194620789
0.01194555839
0.01194385854
0.01194385882
0.01194385913
0.01194385923
0.01194385923
0.01194385921
0.011943859
0.01194385868
0.01194477649
0.01194558689
0.01276681941
0.01276615092
0.01276440214
0.01276440269
0.01276440345
0.01276440348
0.01276440343
0.01276440353
0.01276440312
0.01276440243
0.01276534643
0.01276618028
0.01361147832
0.01361079172
0.01360899441
0.01360899565
0.01360899513
0.01360899391
0.01360899372
0.01360899438
0.01360899567
0.01360899532
0.01360996476
0.01361082126
0.01448090521
0.01448020804
0.01447835999
0.01447836111
0.0144783454
0.01447833751
0.01447833702
0.01447833963
0.01447835474
0.01447836238
0.01447935894
0.01448023308
0.01537587198
0.01537516579
0.01537323938
0.01537322276
0.0153731672
0.01537314532
0.01537314314
0.01537315154
0.01537319889
0.01537323419
0.01537428847
0.01537518484
0.01629690494
0.01629579091
0.01629404743
0.01629395632
0.01629404306
0.01629405681
0.01629404834
0.01629406352
0.01629397741
0.01629398919
0.01629502748
0.0162960764
0.0001171451039
0.0001178086124
0.0001179239454
0.0001177739693
0.0001177133912
0.0001176944368
0.0001176695596
0.000117659206
0.0001176593251
0.0001176615061
0.0001176844152
0.0001176989203
0.0001177556464
0.000117799398
0.0001179658956
0.0001178508367
0.0005928448343
0.0005920935121
0.0005916130704
0.0005916370967
0.0005916395882
0.0005916511919
0.0005916538653
0.0005916571011
0.0005916591533
0.0005916546975
0.0005916540211
0.0005916443625
0.0005916396209
0.0005916277968
0.0005916001095
0.00059250035
0.001080924703
0.001080027533
0.001079477809
0.00107947991
0.001079488957
0.001079502038
0.001079522281
0.001079534812
0.001079536974
0.001079530101
0.001079512026
0.001079494572
0.00107948306
0.001079480295
0.001079475173
0.001080500977
0.0015832156
0.001582299344
0.001581717242
0.001581711069
0.001581709541
0.001581713066
0.001581721627
0.001581728116
0.001581729313
0.001581725563
0.001581717046
0.001581710562
0.001581709654
0.00158171379
0.001581720883
0.00158278257
0.002100176526
0.002099239227
0.002098644102
0.002098640723
0.002098638532
0.002098638551
0.002098640333
0.002098642231
0.002098642658
0.002098641411
0.002098639295
0.002098638255
0.002098639433
0.002098642219
0.002098646091
0.002099733242
0.002632277169
0.002631313801
0.00263070413
0.002630702812
0.002630701728
0.002630701305
0.002630701409
0.002630701776
0.002630701884
0.002630701594
0.002630701301
0.002630701434
0.002630702215
0.002630703436
0.002630704843
0.00263182141
0.003179969664
0.003178978353
0.00317835172
0.003178351162
0.00317835066
0.003178350353
0.003178350223
0.003178350238
0.003178350254
0.003178350221
0.003178350267
0.003178350482
0.003178350894
0.003178351437
0.003178352004
0.003179500632
0.003743710965
0.003742690713
0.003742046011
0.003742045733
0.003742045469
0.003742045277
0.003742045155
0.00374204511
0.003742045105
0.003742045124
0.003742045206
0.003742045364
0.003742045595
0.003742045871
0.003742046152
0.00374322822
0.004323971143
0.004322921051
0.00432225759
0.004322257437
0.004322257287
0.004322257166
0.004322257077
0.004322257033
0.004322257026
0.00432225705
0.004322257117
0.004322257223
0.00432225736
0.004322257513
0.004322257667
0.004323474269
0.004921234226
0.004920153394
0.004919470562
0.004919470474
0.004919470385
0.00491947031
0.00491947025
0.004919470217
0.004919470211
0.004919470229
0.004919470277
0.004919470345
0.004919470428
0.004919470517
0.004919470606
0.004920722801
0.005535998446
0.00553488596
0.00553418316
0.005534183109
0.005534183056
0.005534183011
0.005534182972
0.00553418295
0.005534182946
0.005534182959
0.00553418299
0.005534183033
0.005534183083
0.005534183134
0.005534183185
0.00553547204
0.00616877663
0.006167631557
0.006166908189
0.006166908161
0.006166908132
0.006166908106
0.006166908083
0.00616690807
0.006166908068
0.006166908075
0.006166908094
0.006166908118
0.006166908147
0.006166908174
0.006166908201
0.006168234802
0.006820096628
0.00681891801
0.006818173464
0.006818173454
0.006818173441
0.00681817343
0.006818173419
0.006818173413
0.006818173412
0.006818173415
0.006818173424
0.006818173435
0.006818173448
0.006818173458
0.006818173468
0.006819538926
0.007490501758
0.007489288611
0.007488522266
0.00748852227
0.007488522272
0.007488522274
0.007488522274
0.007488522274
0.007488522274
0.007488522273
0.007488522274
0.007488522273
0.007488522272
0.007488522267
0.007488522261
0.007489927717
0.00818055126
0.008179302573
0.008178513791
0.008178513811
0.008178513829
0.008178513844
0.008178513854
0.00817851386
0.008178513862
0.008178513858
0.00817851385
0.008178513837
0.008178513821
0.008178513799
0.008178513776
0.0081799604
0.008890820758
0.008889535492
0.008888723623
0.008888723665
0.008888723703
0.008888723735
0.008888723758
0.008888723771
0.008888723773
0.008888723766
0.008888723748
0.00888872372
0.008888723686
0.008888723642
0.008888723596
0.008890212587
0.009621902744
0.009620579836
0.009619744219
0.009619744295
0.009619744364
0.009619744419
0.009619744458
0.009619744478
0.009619744481
0.00961974447
0.009619744441
0.009619744393
0.009619744332
0.009619744255
0.009619744171
0.009621276758
0.01037440708
0.01037304544
0.01037218541
0.01037218555
0.01037218567
0.01037218576
0.01037218581
0.01037218584
0.01037218584
0.01037218583
0.01037218579
0.01037218571
0.01037218561
0.01037218548
0.01037218533
0.01037376276
0.0111489615
0.01114756003
0.01114667494
0.01114667519
0.01114667541
0.01114667554
0.01114667562
0.01114667563
0.01114667563
0.01114667563
0.01114667559
0.01114667548
0.01114667531
0.01114667507
0.01114667479
0.01114829832
0.01194621209
0.01194476969
0.01194385903
0.01194385954
0.01194385994
0.01194386014
0.01194386018
0.01194386011
0.01194386009
0.01194386015
0.01194386018
0.01194386007
0.01194385977
0.01194385929
0.0119438587
0.01194552952
0.01276682375
0.01276533955
0.0127644033
0.0127644045
0.01276440531
0.01276440546
0.01276440509
0.0127644046
0.01276440447
0.01276440482
0.01276440533
0.01276440546
0.01276440498
0.01276440395
0.01276440248
0.01276612136
0.01361148236
0.01360995671
0.01360899571
0.01360899823
0.01360899921
0.01360899831
0.01360899581
0.01360899369
0.01360899326
0.01360899454
0.01360899718
0.01360899899
0.01360899897
0.01360899715
0.01360899376
0.0136107602
0.01448090541
0.01447934053
0.01447835171
0.01447835233
0.0144783493
0.01447834386
0.01447833504
0.0144783292
0.01447832821
0.01447833137
0.01447833964
0.01447834693
0.01447835154
0.01447835194
0.01447834979
0.01448016359
0.01537585941
0.01537424012
0.01537319196
0.01537316916
0.01537315374
0.01537314231
0.01537313034
0.01537312401
0.01537312283
0.01537312632
0.01537313613
0.01537314789
0.01537316211
0.01537317645
0.01537320287
0.01537508765
0.01629688456
0.01629505231
0.01629400635
0.01629403746
0.01629406889
0.01629408597
0.01629410696
0.01629411831
0.01629411857
0.01629411529
0.01629409423
0.01629408086
0.01629404458
0.01629402925
0.01629402274
0.01629593799
0.0001179755425
0.0001180262837
0.0001177647292
0.0001176902653
0.00011766434
0.0001176541831
0.0001176495606
0.0001176463593
0.0001176448357
0.0001176446905
0.000117645319
0.000117647999
0.0001176512556
0.0001176591151
0.0001176732221
0.0001177154738
0.0001178201462
0.0001179752046
0.0001171148692
0.0005925286461
0.0005916248746
0.0005916598376
0.0005916579221
0.0005916518772
0.0005916481537
0.0005916483918
0.0005916493393
0.0005916504273
0.0005916508831
0.0005916498286
0.0005916489738
0.0005916478231
0.0005916497798
0.0005916544168
0.00059166104
0.0005916497912
0.0005921139403
0.0005929167804
0.001080493819
0.001079479959
0.001079506301
0.001079517364
0.001079520668
0.001079523536
0.001079528596
0.001079534989
0.001079539613
0.001079540593
0.001079537712
0.001079531807
0.001079525802
0.001079521821
0.0010795195
0.001079513331
0.001079496623
0.00108001939
0.001080957827
0.001582779564
0.001581721761
0.001581720017
0.001581719778
0.001581719306
0.001581720087
0.001581723084
0.001581727587
0.001581731136
0.001581731897
0.001581729657
0.001581725274
0.001581721331
0.001581719417
0.001581719507
0.001581719903
0.001581720547
0.001582303392
0.001583219794
0.002099729888
0.002098646293
0.002098642731
0.002098640372
0.002098638763
0.002098638201
0.00209863902
0.002098640792
0.002098642385
0.002098642749
0.0020986417
0.002098639844
0.002098638454
0.002098638316
0.002098639456
0.002098641446
0.002098644288
0.002099244433
0.002100176348
0.002631817459
0.00263070485
0.002630703249
0.002630701795
0.002630700652
0.002630700005
0.002630699995
0.002630700451
0.002630700967
0.002630701094
0.002630700737
0.002630700185
0.002630699928
0.002630700253
0.002630701168
0.002630702493
0.002630704039
0.002631318567
0.002632277098
0.003179496453
0.003178351962
0.003178351276
0.003178350543
0.003178349896
0.003178349446
0.003178349264
0.003178349294
0.003178349407
0.00317834944
0.003178349353
0.003178349259
0.003178349325
0.00317834964
0.003178350198
0.003178350907
0.003178351635
0.003178983083
0.003179969695
0.003743223909
0.003742046112
0.00374204576
0.003742045372
0.003742045007
0.003742044722
0.003742044551
0.003742044481
0.003742044475
0.003742044477
0.003742044475
0.003742044505
0.003742044624
0.003742044852
0.003742045181
0.003742045566
0.003742045945
0.003742695565
0.003743711
0.004323469832
0.004322257639
0.004322257438
0.004322257217
0.004322257003
0.004322256823
0.004322256696
0.00432225662
0.004322256588
0.004322256582
0.0043222566
0.004322256652
0.004322256753
0.004322256907
0.004322257106
0.004322257328
0.004322257543
0.004322926047
0.004323971174
0.004920718234
0.004919470587
0.004919470468
0.004919470337
0.004919470208
0.004919470094
0.004919470006
0.004919469947
0.004919469916
0.00491946991
0.004919469928
0.004919469973
0.004919470047
0.004919470148
0.00491947027
0.004919470403
0.00491947053
0.004920158538
0.004921234256
0.00553546734
0.005534183174
0.005534183103
0.005534183025
0.005534182947
0.005534182876
0.005534182819
0.005534182777
0.005534182754
0.00553418275
0.005534182764
0.005534182796
0.005534182846
0.00553418291
0.005534182985
0.005534183065
0.00553418314
0.005534891257
0.005535998476
0.006168229965
0.006166908196
0.006166908157
0.006166908113
0.006166908068
0.006166908027
0.006166907992
0.006166907966
0.006166907951
0.006166907948
0.006166907957
0.006166907978
0.006166908008
0.006166908047
0.00616690809
0.006166908136
0.006166908178
0.00616763701
0.00616877666
0.006819533947
0.006818173466
0.006818173452
0.006818173433
0.006818173412
0.006818173392
0.006818173375
0.006818173362
0.006818173354
0.006818173353
0.006818173357
0.006818173368
0.006818173383
0.006818173402
0.006818173422
0.006818173442
0.00681817346
0.006818923624
0.006820096659
0.007489922593
0.007488522264
0.00748852227
0.007488522273
0.007488522274
0.007488522273
0.007488522271
0.007488522269
0.007488522267
0.007488522267
0.007488522268
0.00748852227
0.007488522272
0.007488522273
0.007488522274
0.007488522272
0.007488522268
0.007489294391
0.00749050179
0.008179955127
0.008178513785
0.008178513814
0.00817851384
0.008178513862
0.00817851388
0.008178513892
0.008178513901
0.008178513905
0.008178513906
0.008178513903
0.008178513897
0.008178513886
0.008178513871
0.008178513852
0.008178513828
0.0081785138
0.008179308524
0.008180551291
0.00889020716
0.008888723611
0.008888723671
0.008888723727
0.008888723775
0.008888723815
0.008888723844
0.008888723862
0.008888723872
0.008888723873
0.008888723868
0.008888723854
0.00888872383
0.008888723796
0.008888723752
0.0088887237
0.008888723641
0.008889541619
0.008890820789
0.009621271173
0.009619744196
0.009619744304
0.009619744404
0.00961974449
0.009619744558
0.009619744604
0.009619744631
0.009619744643
0.009619744645
0.009619744638
0.00961974462
0.009619744582
0.009619744526
0.009619744449
0.009619744355
0.00961974425
0.009620586145
0.009621902775
0.01037375701
0.01037218537
0.01037218556
0.01037218573
0.01037218587
0.01037218598
0.01037218604
0.01037218607
0.01037218607
0.01037218607
0.01037218607
0.01037218606
0.01037218601
0.01037218593
0.01037218581
0.01037218565
0.01037218546
0.01037305194
0.01037440711
0.01114829241
0.01114667485
0.01114667519
0.01114667549
0.01114667573
0.01114667589
0.01114667596
0.01114667595
0.01114667591
0.0111466759
0.01114667593
0.01114667596
0.01114667593
0.01114667582
0.01114667563
0.01114667535
0.01114667502
0.01114756672
0.01114896153
0.01194552342
0.01194385879
0.01194385949
0.01194386004
0.01194386043
0.01194386063
0.01194386062
0.01194386047
0.0119438603
0.01194386026
0.01194386037
0.01194386056
0.01194386065
0.01194386056
0.01194386026
0.01194385978
0.01194385915
0.01194477656
0.01194621214
0.01276611495
0.01276440259
0.01276440416
0.0127644051
0.01276440561
0.01276440572
0.01276440538
0.01276440474
0.01276440417
0.01276440404
0.01276440441
0.01276440508
0.01276440559
0.01276440572
0.01276440541
0.01276440469
0.01276440346
0.01276534645
0.01276682393
0.01361075333
0.01360899389
0.01360899622
0.01360899667
0.01360899659
0.013608996
0.01360899465
0.01360899281
0.01360899135
0.01360899103
0.01360899194
0.01360899375
0.01360899539
0.01360899639
0.01360899669
0.01360899657
0.01360899538
0.01360996367
0.01361148215
0.0144801573
0.01447834954
0.01447834395
0.01447833845
0.01447833532
0.0144783329
0.01447832993
0.01447832648
0.01447832401
0.0144783235
0.01447832499
0.01447832819
0.01447833146
0.01447833419
0.01447833665
0.0144783409
0.01447834668
0.01447935037
0.01448089855
0.01537508183
0.01537319658
0.01537315106
0.01537313391
0.0153731297
0.01537312852
0.0153731271
0.01537312528
0.01537312401
0.01537312372
0.01537312451
0.01537312615
0.01537312791
0.01537312908
0.01537313095
0.0153731398
0.01537316722
0.01537425635
0.0153758282
0.01629583058
0.01629398453
0.01629403553
0.0162940841
0.01629411299
0.01629412762
0.01629413583
0.01629414122
0.01629414418
0.01629414456
0.01629414311
0.01629413858
0.01629413256
0.01629412072
0.01629410136
0.01629406322
0.01629401823
0.01629496257
0.01629688715
0.0001176767402
0.0001178048519
0.0001177230993
0.0001176691025
0.0001176522382
0.0001176459776
0.0001176434378
0.0001176421437
0.0001176416288
0.0001176414479
0.0001176414016
0.0001176414516
0.0001176419218
0.0001176425335
0.0001176445593
0.0001176483562
0.0001176585876
0.0001176876228
0.0001177737469
0.0001179359356
0.0001175628695
0.0005921591836
0.0005916692681
0.000591677449
0.0005916648135
0.0005916552125
0.0005916496648
0.0005916471185
0.0005916466535
0.0005916470969
0.0005916476731
0.0005916478425
0.0005916474033
0.0005916468318
0.0005916466818
0.0005916481045
0.0005916519708
0.0005916595131
0.0005916711085
0.0005916788499
0.0005916505148
0.0005929758992
0.00108007755
0.001079520857
0.001079524698
0.001079533368
0.001079535857
0.001079535919
0.001079536214
0.001079537693
0.001079539809
0.001079541503
0.001079541887
0.001079540784
0.001079538734
0.001079536818
0.001079535942
0.001079535995
0.001079535149
0.001079529994
0.001079519709
0.001079524879
0.00108093564
0.001582305138
0.00158172886
0.001581725575
0.001581726873
0.001581727778
0.001581728022
0.001581728576
0.001581730046
0.001581732058
0.001581733676
0.00158173404
0.001581732988
0.001581731034
0.001581729204
0.001581728204
0.001581727937
0.001581727445
0.00158172614
0.001581726234
0.001581732444
0.001583196527
0.002099235368
0.002098646176
0.002098643672
0.00209864223
0.002098641396
0.002098640881
0.002098640872
0.002098641554
0.002098642661
0.00209864361
0.002098643829
0.002098643201
0.002098642085
0.002098641135
0.002098640797
0.0020986411
0.00209864177
0.002098642838
0.002098644883
0.002098647501
0.002100152876
0.00263130913
0.002630704504
0.002630703266
0.002630702074
0.002630701127
0.002630700473
0.00263070019
0.002630700331
0.002630700749
0.002630701156
0.002630701253
0.002630700978
0.002630700521
0.002630700213
0.00263070028
0.002630700763
0.002630701568
0.00263070265
0.002630703945
0.002630705024
0.002632252873
0.003178973555
0.003178351801
0.003178351167
0.003178350469
0.003178349824
0.003178349321
0.00317834902
0.003178348946
0.003178349035
0.003178349162
0.003178349195
0.003178349105
0.003178348977
0.003178348957
0.003178349143
0.003178349553
0.003178350134
0.003178350825
0.003178351526
0.003178352066
0.003179944732
0.003742685744
0.003742046015
0.003742045653
0.003742045246
0.003742044845
0.003742044507
0.003742044269
0.003742044147
0.003742044118
0.003742044133
0.003742044139
0.003742044125
0.003742044123
0.003742044194
0.003742044374
0.003742044667
0.003742045041
0.003742045458
0.003742045865
0.003742046166
0.003743685309
0.004322915917
0.004322257573
0.004322257354
0.004322257106
0.004322256857
0.004322256636
0.004322256466
0.004322256355
0.004322256298
0.004322256279
0.004322256276
0.004322256286
0.004322256321
0.004322256403
0.004322256544
0.004322256742
0.00432225698
0.004322257238
0.004322257491
0.004322257662
0.004323944736
0.004920148101
0.004919470544
0.004919470409
0.004919470254
0.004919470097
0.004919469954
0.004919469837
0.004919469752
0.004919469699
0.004919469674
0.004919469669
0.004919469684
0.004919469722
0.00491946979
0.004919469892
0.004919470024
0.004919470175
0.004919470339
0.004919470502
0.004919470596
0.004921207045
0.00553488051
0.005534183147
0.005534183064
0.005534182968
0.00553418287
0.005534182779
0.005534182701
0.005534182642
0.005534182602
0.00553418258
0.005534182576
0.005534182589
0.005534182619
0.005534182669
0.005534182738
0.005534182824
0.005534182919
0.005534183023
0.005534183131
0.005534183176
0.00553597047
0.006167625945
0.006166908181
0.006166908134
0.006166908078
0.00616690802
0.006166907965
0.006166907917
0.006166907879
0.006166907852
0.006166907837
0.006166907834
0.006166907843
0.006166907864
0.006166907896
0.00616690794
0.006166907992
0.006166908049
0.006166908113
0.006166908182
0.006166908194
0.006168747835
0.006818912233
0.006818173461
0.006818173442
0.006818173416
0.006818173388
0.00681817336
0.006818173335
0.006818173315
0.006818173299
0.006818173291
0.006818173289
0.006818173294
0.006818173306
0.006818173324
0.006818173347
0.006818173374
0.006818173402
0.006818173435
0.006818173476
0.006818173461
0.006820066989
0.007489282665
0.007488522267
0.007488522273
0.007488522273
0.007488522271
0.007488522267
0.007488522261
0.007488522256
0.007488522251
0.007488522248
0.007488522247
0.007488522249
0.007488522253
0.007488522259
0.007488522264
0.007488522269
0.007488522273
0.00748852228
0.007488522295
0.007488522257
0.007490471252
0.008179296451
0.008178513797
0.00817851383
0.008178513857
0.008178513881
0.008178513899
0.008178513912
0.00817851392
0.008178513924
0.008178513926
0.008178513926
0.008178513925
0.008178513923
0.008178513917
0.008178513906
0.00817851389
0.00817851387
0.00817851385
0.008178513838
0.008178513775
0.00818051986
0.00888952919
0.008888723636
0.008888723702
0.008888723763
0.008888723817
0.008888723859
0.008888723891
0.008888723912
0.008888723923
0.008888723927
0.008888723928
0.008888723925
0.008888723918
0.008888723903
0.008888723876
0.008888723839
0.008888723791
0.008888723739
0.008888723694
0.008888723597
0.008890788438
0.009620573347
0.009619744239
0.009619744355
0.009619744461
0.009619744553
0.009619744626
0.009619744677
0.009619744707
0.00961974472
0.009619744722
0.009619744723
0.009619744721
0.009619744715
0.009619744694
0.009619744653
0.009619744591
0.009619744509
0.009619744415
0.009619744322
0.009619744175
0.009621869478
0.01037303876
0.01037218544
0.01037218563
0.0103721858
0.01037218595
0.01037218606
0.01037218613
0.01037218616
0.01037218616
0.01037218615
0.01037218614
0.01037218615
0.01037218616
0.01037218615
0.0103721861
0.01037218601
0.01037218588
0.01037218573
0.01037218556
0.01037218533
0.01037437284
0.01114755314
0.01114667497
0.01114667529
0.01114667557
0.01114667579
0.01114667593
0.011146676
0.011146676
0.01114667595
0.0111466759
0.01114667588
0.01114667592
0.01114667598
0.01114667601
0.01114667597
0.01114667586
0.01114667568
0.01114667544
0.01114667516
0.01114667479
0.01114892626
0.0119447626
0.01194385902
0.01194385959
0.01194386001
0.0119438603
0.01194386044
0.01194386046
0.01194386035
0.01194386017
0.01194386
0.01194385996
0.01194386007
0.01194386027
0.01194386042
0.01194386047
0.01194386038
0.01194386017
0.01194385983
0.01194385933
0.01194385871
0.01194617585
0.01276533228
0.01276440305
0.01276440407
0.01276440455
0.01276440469
0.01276440466
0.01276440449
0.01276440412
0.01276440364
0.01276440324
0.01276440315
0.01276440341
0.01276440388
0.01276440432
0.0127644046
0.01276440469
0.01276440465
0.01276440438
0.01276440361
0.0127644024
0.01276678658
0.01360994774
0.0136089934
0.01360899476
0.01360899406
0.01360899316
0.01360899253
0.01360899196
0.01360899116
0.01360899023
0.01360898949
0.01360898933
0.0136089898
0.01360899069
0.01360899158
0.01360899225
0.01360899281
0.01360899358
0.01360899452
0.01360899441
0.01360899192
0.01361144389
0.01447931917
0.01447833892
0.0144783365
0.01447833025
0.01447832699
0.01447832576
0.01447832512
0.01447832423
0.01447832315
0.01447832228
0.01447832209
0.01447832264
0.01447832369
0.01447832471
0.01447832544
0.01447832621
0.01447832826
0.01447833307
0.01447833907
0.01447833696
0.01448085897
0.01537418717
0.01537315245
0.0153731319
0.01537312229
0.01537312232
0.01537312448
0.01537312616
0.01537312683
0.01537312686
0.01537312668
0.01537312662
0.01537312676
0.01537312689
0.01537312661
0.01537312543
0.01537312337
0.01537312171
0.01537312515
0.01537314243
0.01537316629
0.01537577481
0.01629514853
0.01629402656
0.01629405527
0.01629410543
0.01629412985
0.01629414164
0.01629414743
0.01629415049
0.01629415216
0.01629415295
0.01629415308
0.01629415267
0.01629415141
0.01629414926
0.01629414495
0.01629413685
0.01629411981
0.01629408477
0.01629402703
0.01629403752
0.01629661552
0.0001176767383
0.0001178113417
0.0001176885567
0.0001176604041
0.0001176487912
0.0001176440698
0.0001176419927
0.0001176411524
0.000117640714
0.000117640542
0.0001176405305
0.0001176405141
0.0001176404607
0.0001176406373
0.0001176408281
0.0001176414386
0.0001176428073
0.0001176459339
0.0001176532845
0.0001176711176
0.0001177281648
0.0001179700914
0.0001173921112
0.0005921591832
0.0005916846074
0.000591678491
0.0005916671126
0.0005916574876
0.0005916515986
0.000591648436
0.0005916470025
0.0005916466143
0.0005916467806
0.0005916470314
0.0005916471059
0.0005916469131
0.000591646678
0.0005916467172
0.0005916475522
0.0005916497465
0.0005916541419
0.0005916618268
0.0005916730464
0.0005916839747
0.0005916668898
0.0005929594282
0.00108007755
0.001079533258
0.001079542745
0.001079543952
0.001079543634
0.001079542523
0.001079541451
0.001079541005
0.001079541293
0.001079541989
0.001079542613
0.001079542761
0.001079542342
0.00107954162
0.001079541069
0.001079541135
0.001079541935
0.001079543148
0.001079543912
0.001079543832
0.001079539815
0.001079524248
0.001080953625
0.001582305139
0.001581732495
0.001581733188
0.001581733292
0.001581733595
0.001581733589
0.001581733385
0.001581733438
0.00158173397
0.00158173478
0.00158173546
0.001581735617
0.001581735167
0.001581734363
0.001581733648
0.00158173336
0.001581733483
0.001581733657
0.001581733424
0.001581733354
0.001581732945
0.001581732684
0.001583199321
0.002099235368
0.002098646709
0.002098645492
0.002098644657
0.002098644161
0.002098643809
0.002098643552
0.002098643549
0.002098643899
0.002098644455
0.002098644933
0.002098645043
0.002098644726
0.002098644167
0.002098643683
0.002098643511
0.002098643662
0.002098643988
0.002098644343
0.00209864516
0.002098646036
0.00209864767
0.002100153161
0.00263130913
0.002630704512
0.002630703596
0.002630702817
0.002630702171
0.002630701664
0.002630701311
0.002630701175
0.002630701286
0.002630701548
0.002630701796
0.002630701854
0.002630701687
0.002630701407
0.002630701202
0.002630701214
0.002630701466
0.002630701906
0.00263070244
0.002630703318
0.002630704045
0.002630705033
0.002632253396
0.003178973555
0.003178351769
0.003178351204
0.003178350658
0.003178350149
0.003178349712
0.003178349381
0.003178349195
0.003178349165
0.00317834924
0.003178349334
0.003178349358
0.003178349292
0.003178349194
0.003178349162
0.003178349269
0.003178349531
0.003178349922
0.003178350359
0.003178351055