/*--------------------------------*- C++ -*----------------------------------*\
| =========                 |                                                 |
| \\      /  F ield         | OpenFOAM: The Open Source CFD Toolbox           |
|  \\    /   O peration     | Version:  2.1.x                                 |
|   \\  /    A nd           | Web:      www.OpenFOAM.org                      |
|    \\/     M anipulation  |                                                 |
\*---------------------------------------------------------------------------*/
FoamFile
{
    version     2.0;
    format      ascii;
    class       volScalarField;
    location    "0";
    object      ccz;
}
// * * * * * * * * * * * * * * * * * * * * * * * * * * * * * * * * * * * * * //

dimensions      [0 1 0 0 0 0 0];

internalField   nonuniform List<scalar> 
141400
(
0.0002447579608
0.0002052424
0.0001924430851
0.0002255857862
0.0002305877644
0.0002412099522
0.0002019164345
0.0001891182656
0.0002222272937
0.0002279355498
0.0002408054876
0.0002014244731
0.0001886184092
0.0002217589824
0.000227680019
0.0002407536421
0.000201358412
0.0001885513887
0.0002216966439
0.0002276509253
0.0002407419417
0.0002013421265
0.0001885346474
0.0002216817525
0.0002276456134
0.0002407379977
0.0002013363123
0.0001885286063
0.0002216765451
0.0002276438411
0.0002407362517
0.0002013337837
0.0001885259752
0.0002216742744
0.0002276429724
0.0002407353652
0.0002013325307
0.0001885246733
0.0002216731427
0.0002276425166
0.0002407348775
0.0002013318539
0.0001885239711
0.0002216725292
0.0002276422629
0.0002407345926
0.0002013314698
0.0001885235735
0.0002216721787
0.000227642111
0.0002407344202
0.000201331249
0.000188523346
0.0002216719745
0.000227642015
0.0002407343165
0.0002013311284
0.0001885232231
0.0002216718602
0.000227641953
0.0002407342607
0.0002013310779
0.0001885231734
0.0002216718086
0.0002276419146
0.0002407342448
0.0002013310864
0.0001885231853
0.0002216718095
0.0002276418957
0.0002407342711
0.0002013311572
0.0001885232622
0.0002216718659
0.0002276418975
0.0002407343526
0.0002013313092
0.000188523424
0.0002216719949
0.0002276419264
0.0002407345191
0.0002013315853
0.0001885237151
0.000221672235
0.0002276419973
0.0002407348314
0.0002013320731
0.0001885242266
0.000221672665
0.0002276421406
0.0002407354167
0.0002013329551
0.0001885251487
0.0002216734494
0.0002276424215
0.0002407365605
0.0002013346488
0.0001885269155
0.0002216749625
0.0002276429808
0.0002407389743
0.0002013382385
0.0001885306528
0.0002216781689
0.000227644101
0.0002407449644
0.0002013471162
0.0001885398523
0.0002216861295
0.0002276466913
0.0002407656964
0.0002013758391
0.0001885694115
0.000221712416
0.0002276574193
0.0002408880144
0.0002015305333
0.000188727043
0.0002218583017
0.0002277307694
0.0002423165696
0.0002031100298
0.0001903243743
0.0002233948897
0.0002286643078
0.001051606567
0.0009189541705
0.0009420736815
0.0009260598484
0.0009841149126
0.001001575077
0.001000297476
0.0009991757554
0.0009520959154
0.0009268965256
0.0009060729156
0.000990318534
0.001049013196
0.0009147731643
0.0009356413309
0.0009200246654
0.0009797079096
0.0009977537997
0.0009965061293
0.000995221103
0.0009467058326
0.0009207334672
0.0009014034394
0.0009869462037
0.001048792741
0.0009142355792
0.0009345068609
0.0009186897325
0.0009782123813
0.0009962260665
0.0009949756704
0.0009937004155
0.00094529994
0.000919459903
0.0009006303827
0.0009865313847
0.001048770165
0.000914162766
0.0009343039727
0.0009184011542
0.000977799073
0.0009957600922
0.0009945038219
0.0009932506402
0.0009449529647
0.0009192107304
0.0009005047839
0.0009864865328
0.001048764051
0.0009141425214
0.000934245069
0.00091831101
0.0009776609022
0.0009955979319
0.0009943383135
0.000993096682
0.0009448399205
0.0009191359473
0.0009004686261
0.0009864735503
0.001048761777
0.0009141345744
0.0009342221523
0.0009182748754
0.0009776048621
0.0009955312725
0.0009942699942
0.0009930338386
0.0009447942147
0.0009191064158
0.0009004544941
0.0009864684252
0.001048760808
0.0009141310204
0.0009342117588
0.0009182581195
0.0009775787127
0.0009955000001
0.00099423788
0.0009930044428
0.0009447729228
0.0009190928836
0.0009004481252
0.0009864662248
0.00104876033
0.0009141292513
0.0009342065045
0.0009182495423
0.000977565252
0.0009954838563
0.0009942212865
0.0009929892883
0.0009447619818
0.0009190860048
0.0009004449242
0.000986465148
0.00104876007
0.0009141282921
0.0009342036333
0.000918244833
0.0009775578356
0.0009954749508
0.0009942121294
0.0009929809333
0.0009447559602
0.0009190822394
0.0009004431772
0.0009864645642
0.001048759922
0.0009141277464
0.000934201991
0.0009182421386
0.0009775535792
0.0009954698405
0.0009942068747
0.0009929761384
0.0009447525076
0.0009190800878
0.0009004421762
0.0009864642312
0.001048759835
0.0009141274329
0.0009342010424
0.0009182405881
0.0009775511189
0.0009954668915
0.0009942038438
0.0009929733692
0.0009447505149
0.0009190788498
0.000900441595
0.0009864640389
0.001048759787
0.0009141272628
0.0009342005236
0.0009182397502
0.0009775497777
0.0009954652913
0.0009942022011
0.0009929718628
0.0009447494319
0.0009190781799
0.0009004412733
0.0009864639334
0.001048759766
0.0009141271934
0.0009342003071
0.0009182394161
0.0009775492265
0.0009954646443
0.0009942015402
0.0009929712485
0.0009447489911
0.0009190779107
0.0009004411337
0.0009864638885
0.001048759767
0.0009141272089
0.0009342003455
0.0009182395066
0.0009775493429
0.0009954648039
0.00099420171
0.0009929713885
0.0009447490931
0.000919077979
0.0009004411474
0.0009864638947
0.001048759792
0.0009141273138
0.0009342006527
0.0009182400455
0.0009775501637
0.0009954658141
0.0009942027559
0.0009929723242
0.0009447497675
0.0009190784037
0.000900441323
0.0009864639548
0.001048759848
0.0009141275355
0.00093420131
0.0009182411668
0.0009775518984
0.0009954679266
0.000994204937
0.0009929742915
0.0009447511848
0.0009190792918
0.0009004417094
0.0009864640852
0.001048759951
0.0009141279347
0.0009342024985
0.0009182431674
0.0009775550138
0.0009954717024
0.0009942088297
0.0009929778166
0.0009447537241
0.0009190808809
0.0009004424165
0.0009864643228
0.001048760136
0.000914128635
0.0009342045834
0.0009182466444
0.0009775604472
0.0009954782657
0.0009942155897
0.0009929839548
0.0009447581471
0.0009190836498
0.0009004436665
0.0009864647429
0.00104876047
0.0009141298931
0.0009342083203
0.0009182528228
0.000977570116
0.000995489911
0.0009942275733
0.0009929948625
0.000944766013
0.0009190885844
0.0009004459205
0.0009864655008
0.001048761114
0.0009141322897
0.000934215398
0.000918264395
0.0009775882173
0.0009955116415
0.0009942499122
0.0009930152509
0.0009447807388
0.0009190978713
0.0009004502139
0.0009864669603
0.001048762507
0.0009141372642
0.0009342300384
0.0009182879142
0.0009776249229
0.0009955555033
0.000994294931
0.000993056504
0.0009448106152
0.000919116913
0.0009004591315
0.000986470103
0.001048765943
0.0009141489934
0.0009342645083
0.0009183419772
0.0009777085939
0.0009956545714
0.0009943963209
0.0009931501244
0.0009448789167
0.0009191612336
0.0009004801949
0.0009864777235
0.001048775932
0.0009141848844
0.0009343650501
0.0009184934254
0.0009779343224
0.0009959154263
0.0009946617672
0.000993399339
0.0009450657874
0.0009192880418
0.0009005427927
0.0009864993159
0.00104883277
0.0009143618343
0.0009347959071
0.0009190660293
0.000978688457
0.0009967340335
0.0009954863966
0.0009941999257
0.0009457226476
0.000919800942
0.0009008234539
0.0009866137143
0.001049704226
0.0009161247427
0.0009377152473
0.0009221090907
0.0009814981037
0.0009994055702
0.0009981489262
0.0009969091878
0.0009486595049
0.0009228504604
0.0009029926103
0.0009881438066
0.001901681124
0.001782626166
0.001805146645
0.001785375267
0.00177867553
0.001781835109
0.001803211238
0.001818471697
0.001820767249
0.001812853148
0.001791308171
0.001778112186
0.001780235623
0.00179618137
0.001810375124
0.001821929173
0.001899420433
0.001777894246
0.001799575295
0.00178145432
0.001775757448
0.001779477828
0.001801354962
0.001816888519
0.001819221447
0.001811174247
0.001789200024
0.001775524064
0.001776791054
0.001791721223
0.001803889649
0.001817921136
0.001899186142
0.001777155235
0.001798229979
0.001779909207
0.001774219695
0.001778017884
0.001800008081
0.001815622122
0.001817969597
0.001809876295
0.001787795451
0.001774019078
0.001775240387
0.001790223515
0.001802747263
0.001817484737
0.001899159493
0.001777032279
0.001797910889
0.001779431124
0.001773640531
0.001777389603
0.001799354153
0.001814961909
0.00181730935
0.001809217352
0.00178715235
0.001773409936
0.001774707706
0.00178981134
0.001802524305
0.001817426934
0.001899153044
0.001776996255
0.001797808437
0.001779259627
0.001773410979
0.001777119085
0.001799052405
0.001814644288
0.001816989151
0.001808905556
0.001786864961
0.001773157948
0.001774506154
0.001789671655
0.001802456854
0.001817411021
0.001899150806
0.001776982233
0.001797767316
0.001779187119
0.001773308844
0.001776992946
0.001798906437
0.001814487157
0.001816830002
0.001808752715
0.001786728252
0.001773043088
0.001774418647
0.001789614223
0.001802430363
0.001817404968
0.001899149828
0.001776975939
0.001797748287
0.001779152497
0.001773258582
0.00177692913
0.001798831062
0.001814405021
0.001816746594
0.001808673218
0.001786658308
0.001772985741
0.001774376209
0.001789587256
0.001802418268
0.001817402297
0.001899149336
0.00177697278
0.001797738558
0.001779134447
0.001773231866
0.001776894617
0.001798789791
0.001814359727
0.001816700529
0.001808629507
0.00178662022
0.00177295498
0.001774353863
0.001789573341
0.001802412136
0.001817400967
0.001899149069
0.00177697106
0.001797733225
0.001779124433
0.001773216855
0.001776875009
0.00179876616
0.001814333679
0.001816674013
0.001808604413
0.001786598486
0.001772937595
0.001774341386
0.001789565672
0.00180240879
0.001817400245
0.001899148918
0.001776970079
0.001797730179
0.001779118669
0.001773208143
0.001776863545
0.001798752273
0.001814318329
0.001816658378
0.001808589642
0.001786585743
0.001772927465
0.001774334173
0.001789561275
0.001802406885
0.001817399835
0.001899148831
0.001776969514
0.001797728429
0.00177911534
0.001773203084
0.001776856857
0.001798744142
0.001814309326
0.001816649204
0.001808580984
0.001786578293
0.001772921569
0.001774329996
0.001789558742
0.001802405792
0.0018173996
0.001899148783
0.001776969204
0.001797727482
0.001779113538
0.001773200336
0.001776853213
0.001798739701
0.001814304404
0.001816644188
0.001808576252
0.001786574228
0.00177291836
0.00177432773
0.001789557371
0.001802405201
0.001817399472
0.001899148763
0.001776969074
0.001797727102
0.001779112817
0.001773199236
0.001776851755
0.001798737919
0.001814302428
0.001816642175
0.001808574351
0.001786572598
0.001772917076
0.001774326823
0.001789556821
0.001802404962
0.001817399419
0.001899148766
0.001776969094
0.0017977272
0.001779113013
0.001773199538
0.00177685216
0.001798738407
0.001814302971
0.00181664273
0.001808574871
0.001786573046
0.001772917431
0.001774327069
0.001789556965
0.001802405021
0.001817399428
0.001899148793
0.001776969273
0.001797727803
0.001779114175
0.001773201317
0.001776854526
0.001798741284
0.001814306164
0.001816645987
0.001808577936
0.001786575681
0.00177291951
0.001774328531
0.001789557842
0.001802405393
0.001817399504
0.001899148853
0.00177696966
0.001797729062
0.001779116589
0.001773204997
0.001776859407
0.001798747215
0.00181431274
0.001816652689
0.001808584253
0.001786581114
0.001772923806
0.001774331562
0.001789559668
0.001802406173
0.001817399668
0.001899148961
0.001776970365
0.001797731316
0.001779120885
0.001773211516
0.001776868017
0.001798757655
0.001814324295
0.001816664463
0.001808595362
0.001786590686
0.001772931397
0.001774336944
0.001789562929
0.001802407576
0.001817399964
0.001899149153
0.001776971608
0.001797735247
0.001779128319
0.001773222721
0.001776882726
0.001798775426
0.001814343919
0.001816684449
0.001808614248
0.001786607008
0.001772944405
0.001774346227
0.001789568596
0.001802410029
0.001817400487
0.001899149502
0.00177697385
0.001797742254
0.001779141439
0.001773242297
0.001776908197
0.001798806018
0.001814377584
0.001816718707
0.001808646696
0.00178663518
0.001772967024
0.001774362528
0.001789578653
0.001802414422
0.00181740143
0.001899150167
0.001776978122
0.001797755424
0.001779165731
0.001773278004
0.00177695403
0.001798860558
0.001814437275
0.001816779378
0.001808704362
0.001786685615
0.001773007989
0.001774392481
0.001789597426
0.001802422729
0.001817403233
0.001899151563
0.001776987042
0.001797782303
0.001779214157
0.001773347558
0.001777041434
0.00179896298
0.001814548343
0.001816892044
0.001808812069
0.001786780991
0.00177308691
0.001774451501
0.001789635338
0.001802439849
0.001817407024
0.001899155028
0.00177700823
0.001797844134
0.001779321353
0.001773495786
0.001777221263
0.001799168094
0.00181476714
0.001817113223
0.001809025686
0.001786974371
0.001773252076
0.001774579638
0.001789721026
0.00180247987
0.001817416178
0.001899166521
0.001777069938
0.001798014316
0.001779595611
0.001773849434
0.001777624692
0.001799605875
0.001815220162
0.001817568372
0.001809473461
0.001787396686
0.00177363385
0.001774895727
0.001789948749
0.001802594016
0.00181744401
0.001899231467
0.001777338742
0.001798627718
0.001780430713
0.001774786661
0.00177858587
0.001800558155
0.001816153449
0.001818496832
0.001810415639
0.001788355511
0.001774590704
0.001775789002
0.001790701797
0.001803050742
0.001817581568
0.00190014501
0.001779441969
0.001801537495
0.001783127655
0.00177713093
0.001780641914
0.001802316126
0.001817733231
0.001820048936
0.001812060691
0.001790262598
0.001776781392
0.001778320602
0.001793527724
0.001805938184
0.001819120435
0.002649669064
0.002646758256
0.002646018102
0.002638339366
0.002628570735
0.002623528537
0.002626144585
0.002635496413
0.002643862654
0.002645653496
0.002640320434
0.002630343519
0.002623810966
0.002625103796
0.002633411296
0.002642579511
0.002648921822
0.00260403747
0.002757154206
0.002646257182
0.002640946345
0.002642445709
0.002636009614
0.002626926955
0.002622272114
0.002625136069
0.002634662849
0.002643128989
0.002644938569
0.002639547486
0.002629429073
0.002622693071
0.002623671047
0.002631483841
0.002639723512
0.002644502349
0.002599764617
0.002755438967
0.002645846221
0.002639770356
0.00264095842
0.002634578244
0.0026256486
0.002621143817
0.002624135212
0.002633766315
0.00264229732
0.002644119685
0.002638689789
0.002628483386
0.002621631797
0.002622469403
0.002630126387
0.00263823831
0.002643089461
0.002599039038
0.0027552596
0.002645800659
0.002639510215
0.0026404726
0.002633966714
0.002624991994
0.002620485311
0.002623494097
0.002633148015
0.002641696414
0.00264352261
0.0026380815
0.002627853616
0.002620980486
0.002621808472
0.002629484452
0.002637676974
0.002642701892
0.002598913155
0.002755248143
0.002645786562
0.002639428128
0.002640293345
0.002633705761
0.002624676951
0.002620139429
0.002623132809
0.002632780029
0.002641326559
0.002643152612
0.002637712144
0.00262748819
0.002620625321
0.002621475737
0.002629192925
0.002637453619
0.002642570051
0.00259887493
0.002755243148
0.002645780459
0.002639395263
0.002640216664
0.002633585168
0.002624520621
0.00261995719
0.002622932957
0.002632568791
0.002641109447
0.002642934422
0.002637497279
0.002627281962
0.002620433295
0.002621305362
0.002629053153
0.00263735431
0.002642515735
0.002598859527
0.002755240766
0.00264577772
0.002639380029
0.002640179847
0.002633524634
0.002624438587
0.002619857694
0.002622820198
0.002632446642
0.002640982062
0.002642806025
0.002637371951
0.00262716404
0.002620326611
0.002621214103
0.002628981393
0.002637305578
0.002642490175
0.002598852471
0.00275523977
0.002645776374
0.002639372241
0.002640160603
0.002633492107
0.002624393218
0.002619801178
0.0026227547
0.002632374514
0.002640906117
0.002642729327
0.00263729752
0.002627094923
0.002620265288
0.002621162933
0.002628942272
0.002637279764
0.002642476978
0.002598848907
0.002755239302
0.002645775646
0.002639367979
0.002640149923
0.002633473727
0.00262436708
0.002619768016
0.002622715673
0.00263233105
0.00264086006
0.002642682752
0.002637252496
0.002627053485
0.00262022901
0.002621133174
0.00262891995
0.002637265314
0.002642469711
0.002598846965
0.002755239053
0.002645775234
0.002639365551
0.002640143782
0.002633463029
0.002624351663
0.002619748207
0.002622692111
0.002632304607
0.002640831915
0.002642654266
0.002637225031
0.00262702836
0.002620207217
0.002621115506
0.002628906872
0.002637256955
0.002642465553
0.002598845859
0.002755238912
0.002645774997
0.002639364159
0.00264014024
0.002633456809
0.00262434262
0.002619736487
0.002622678069
0.002632288765
0.002640815003
0.002642637138
0.002637208547
0.002627013342
0.002620194272
0.002621105095
0.002628899234
0.002637252116
0.002642463163
0.002598845222
0.002755238832
0.002645774869
0.002639363409
0.002640138325
0.00263345343
0.00262433768
0.002619730049
0.00262267032
0.002632279992
0.00264080562
0.002642627632
0.002637199408
0.002627005038
0.002620187142
0.002621099391
0.002628895072
0.002637249493
0.002642461872
0.002598844875
0.002755238789
0.002645774817
0.002639363109
0.002640137562
0.002633452082
0.002624335704
0.002619727468
0.002622667206
0.002632276459
0.002640801838
0.002642623799
0.002637195724
0.002627001696
0.002620184279
0.002621097105
0.002628893408
0.002637248445
0.002642461357
0.002598844732
0.002755238773
0.002645774829
0.002639363189
0.002640137773
0.002633452461
0.002624336264
0.002619728203
0.002622668093
0.002632277464
0.002640802914
0.002642624889
0.00263719677
0.002627002645
0.00262018509
0.002621097751
0.002628893874
0.002637248734
0.002642461495
0.002598844758
0.002755238779
0.002645774908
0.00263936367
0.002640139012
0.002633454661
0.002624339492
0.00261973242
0.002622673178
0.002632283225
0.002640809078
0.002642631135
0.00263720277
0.002627008091
0.002620189759
0.002621101476
0.002628896582
0.002637250433
0.002642462324
0.002598844966
0.002755238809
0.002645775075
0.002639364675
0.002640141585
0.002633459203
0.002624346125
0.002619741048
0.002622683543
0.00263229494
0.002640821597
0.002642643815
0.002637214963
0.002627019181
0.002620199295
0.002621109117
0.002628902163
0.002637253951
0.002642464051
0.002598845408
0.002755238869
0.002645775378
0.002639366476
0.002640146168
0.002633467236
0.002624357769
0.002619756087
0.002622701507
0.002632315158
0.002640843151
0.002642665637
0.002637235977
0.002627038358
0.002620215866
0.002621122483
0.002628911999
0.002637260197
0.002642467137
0.00259884621
0.002755238976
0.00264577591
0.002639369621
0.00264015411
0.002633481014
0.002624377522
0.002619781336
0.002622731405
0.002632348599
0.002640878676
0.002642701576
0.002637270663
0.002627070167
0.002620243562
0.002621145041
0.002628928779
0.002637270968
0.002642472508
0.002598847621
0.002755239161
0.002645776869
0.00263937524
0.002640168131
0.002633504988
0.002624411356
0.002619823939
0.00262278122
0.002632403811
0.002640937021
0.002642760541
0.002637327752
0.002627122904
0.002620289986
0.002621183385
0.002628957753
0.002637289854
0.002642482053
0.002598850159
0.002755239495
0.002645778712
0.002639385809
0.002640194071
0.00263354839
0.002624471208
0.002619897684
0.00262286589
0.002632496406
0.002641034116
0.002642858513
0.002637423058
0.002627211891
0.002620369577
0.00262125047
0.002629009611
0.002637324435
0.002642499879
0.002598854977
0.002755240147
0.002645782611
0.002639407355
0.002640245607
0.002633631754
0.002624582218
0.002620030155
0.002623013972
0.002632655162
0.002641198654
0.002643024143
0.002637585332
0.002627365855
0.00262051055
0.002621372877
0.002629107492
0.002637392036
0.002642535825
0.002598864911
0.002755241628
0.002645791637
0.002639456882
0.00264035876
0.002633804653
0.002624800111
0.002620277943
0.002623280183
0.002632932143
0.002641480622
0.002643306948
0.002637865455
0.002627638203
0.002620768776
0.002621607227
0.002629304897
0.002637536379
0.002642616869
0.002598887949
0.002755245128
0.002645815971
0.002639594604
0.002640642864
0.002634195878
0.002625250495
0.002620753864
0.002623762415
0.002633411851
0.00264195579
0.002643780883
0.002638342777
0.00262811979
0.002621249596
0.002622073316
0.002629731008
0.002637880208
0.002642831757
0.002598953572
0.002755252009
0.002645934188
0.002640107194
0.002641474599
0.002635136018
0.002626183608
0.002621637972
0.002624587495
0.002634181499
0.002642688302
0.002644505704
0.002639090531
0.00262891608
0.002622104375
0.002622984408
0.002630676421
0.002638787217
0.002643540348
0.002599226799
0.002755286428
0.002647369054
0.002642844783
0.002643994081
0.002637157733
0.002627794595
0.002622959787
0.002625701874
0.002635139873
0.00264355433
0.002645354188
0.002639992983
0.002629947117
0.002623313084
0.002624440931
0.002632472849
0.002641058534
0.002646249243
0.002601203375
0.002756058988
0.003504447224
0.003506925173
0.003488420766
0.003482321096
0.003475978179
0.003469865887
0.003466503389
0.003467406781
0.003471510186
0.003475533346
0.00347648954
0.003473760234
0.0034692279
0.003466424819
0.003467692723
0.003472772467
0.003479228771
0.003485315359
0.00349407757
0.003521635927
0.003549573721
0.00350054695
0.003502848421
0.003485836144
0.003480734804
0.003474916185
0.00346909444
0.003465900535
0.003466912969
0.003471088599
0.003475152545
0.003476117011
0.003473363032
0.003468773913
0.003465882063
0.003467015682
0.003471876545
0.003477943475
0.003483313191
0.003490767196
0.00351630371
0.00354734719
0.003499967046
0.00350156359
0.003484458847
0.003479516689
0.003473899857
0.003468246011
0.003465177342
0.003466282229
0.003470524035
0.003474626816
0.003475599098
0.00347282162
0.003468179289
0.003465208673
0.003466234579
0.003470949862
0.003476827813
0.00348199965
0.003489390499
0.003515270887
0.003547138207
0.003499863613
0.003501215372
0.003483923548
0.003478895648
0.003473273307
0.003467649564
0.003464620579
0.003465763585
0.003470036438
0.003474158723
0.003475135046
0.003472345516
0.003467677246
0.003464671538
0.003465657684
0.003470335922
0.003476197041
0.003481407862
0.003488938814
0.003515046427
0.003547109809
0.003499834205
0.003501097015
0.003483705771
0.003478598586
0.003472931366
0.003467289503
0.003464258125
0.003465406187
0.003469686043
0.003473813677
0.003474791179
0.003471998182
0.003467323322
0.003464311035
0.003465295031
0.003469982227
0.003475873475
0.003481146007
0.003488770593
0.003514976791
0.003547102662
0.003499822895
0.0035010481
0.003483607429
0.003478451373
0.003472746797
0.003467080732
0.003464035585
0.003465176747
0.003469453636
0.003473580325
0.003474557697
0.003471765129
0.003467092031
0.003464084356
0.003465078275
0.003469783985
0.003475705886
0.003481022156
0.003488698027
0.003514949257
0.003547100069
0.003499817681
0.003501025057
0.003483558701
0.003478374215
0.003472644548
0.003466959179
0.003463900478
0.003465032724
0.003469304163
0.003473428087
0.003474404929
0.003471613961
0.003466944901
0.003463944264
0.003464949267
0.003469671295
0.003475615545
0.003480959084
0.003488663023
0.003514936556
0.003547098868
0.003499815031
0.003501013176
0.003483532754
0.003478331614
0.003472585963
0.003466887075
0.003463817874
0.003464942485
0.003469208827
0.003473329979
0.003474306274
0.003471516946
0.003466851808
0.003463857485
0.003464871521
0.00346960557
0.003475564729
0.003480924903
0.0034886447
0.003514930083
0.003547098258
0.003499813592
0.003501006651
0.003483518196
0.003478307123
0.003472551417
0.003466843501
0.003463766854
0.003464885746
0.003469148103
0.003473267022
0.003474242872
0.003471454878
0.003466792858
0.003463803375
0.003464824003
0.003469566326
0.003475535143
0.003480905497
0.003488634533
0.003514926554
0.00354709793
0.003499812776
0.003501002929
0.003483509771
0.003478292712
0.003472530726
0.003466816947
0.003463735272
0.003464850169
0.003469109671
0.003473226963
0.003474202485
0.003471415468
0.003466755703
0.003463769649
0.003464794807
0.003469542612
0.003475517579
0.003480894175
0.003488628691
0.003514924549
0.003547097746
0.003499812307
0.003501000794
0.003483504895
0.003478284278
0.003472518468
0.003466801025
0.003463716127
0.003464828407
0.003469086008
0.003473202206
0.003474177507
0.003471391148
0.003466732893
0.003463749105
0.0034647772
0.003469528476
0.003475507235
0.003480887585
0.003488625326
0.003514923402
0.003547097641
0.003499812051
0.003500999645
0.003483502255
0.00347827968
0.003472511734
0.003466792209
0.00346370545
0.003464816198
0.003469072676
0.003473188223
0.003474163391
0.003471377424
0.003466720064
0.003463737609
0.003464767411
0.003469520676
0.003475501572
0.003480884004
0.003488623509
0.003514922784
0.003547097585
0.003499811943
0.003500999187
0.003483501205
0.003478277846
0.003472509037
0.003466788664
0.003463701141
0.003464811254
0.003469067264
0.003473182539
0.003474157652
0.003471371848
0.00346671486
0.003463732959
0.003464763465
0.003469517542
0.003475499305
0.003480882574
0.003488622784
0.003514922538
0.003547097562
0.00349981196
0.003500999313
0.003483501503
0.003478278372
0.003472509814
0.003466789688
0.003463702387
0.003464812684
0.003469068829
0.003473184182
0.003474159309
0.003471373456
0.003466716359
0.003463734296
0.003464764597
0.003469518437
0.003475499948
0.003480882976
0.003488622984
0.003514922602
0.003547097568
0.003499812108
0.003501000055
0.003483503223
0.003478281383
0.003472514241
0.0034667955
0.003463709442
0.003464820766
0.003469077666
0.003473193456
0.003474168671
0.003471382551
0.003466724848
0.003463741888
0.003464771044
0.003469523558
0.003475503651
0.003480885307
0.003488624159
0.003514922997
0.003547097604
0.003499812428
0.003501001601
0.003483506783
0.003478287575
0.003472523286
0.003466807306
0.003463723696
0.003464837022
0.003469095383
0.003473212017
0.0034741874
0.003471400768
0.003466741898
0.003463757195
0.003464784109
0.003469533996
0.003475511247
0.003480890117
0.0034886266
0.003514923821
0.003547097679
0.003499813014
0.00350100437
0.003483513101
0.003478298462
0.003472539034
0.003466827659
0.003463748052
0.003464864598
0.00346912528
0.003473243242
0.00347421889
0.003471431453
0.003466770739
0.003463783254
0.003464806532
0.00346955208
0.003475524539
0.003480898618
0.003488630951
0.003514925302
0.003547097815
0.003499814053
0.003501009201
0.003483523991
0.003478316973
0.003472565421
0.003466861274
0.003463787761
0.003464909075
0.003469173127
0.003473292993
0.003474269019
0.003471480434
0.003466817059
0.003463825498
0.003464843321
0.003469582165
0.003475546977
0.003480913175
0.003488638497
0.003514927897
0.003547098055
0.003499815938
0.003501017813
0.003483543063
0.003478348755
0.003472609784
0.003466916648
0.003463851985
0.003464979939
0.003469248533
0.003473370911
0.003474347432
0.00347155734
0.003466890424
0.003463893284
0.003464903355
0.003469632227
0.003475585101
0.003480938421
0.003488651829
0.003514932547
0.003547098489
0.003499819533
0.003501033936
0.003483577866
0.003478405091
0.003472686084
0.00346700918
0.003463956609
0.003465093009
0.003469367052
0.003473492315
0.003474469392
0.003471677593
0.003467006526
0.003464002506
0.003465002363
0.003469717079
0.003475651673
0.003480983846
0.003488676483
0.003514941327
0.00354709932
0.003499826908
0.003501066485
0.003483645429
0.003478509738
0.003472821631
0.00346716694
0.003464128791
0.003465273872
0.003469552748
0.003473680248
0.003474657725
0.003471864661
0.003467190155
0.003464179569
0.003465168089
0.003469864679
0.003475772595
0.003481070158
0.003488725337
0.003514959299
0.003547101004
0.003499844102
0.003501139711
0.003483787948
0.003478715367
0.003473070449
0.003467439854
0.003464412459
0.00346556057
0.003469838939
0.00347396511
0.003474942229
0.003472150139
0.003467476813
0.00346446536
0.003465447527
0.003470127408
0.003476002106
0.003481245986
0.003488831948
0.003515000861
0.003547104944
0.003499895333
0.003501333215
0.00348412113
0.003479141164
0.003473533899
0.003467906659
0.003464866601
0.003465996865
0.003470258559
0.003474373557
0.003475348298
0.003472563214
0.003467904326
0.003464910691
0.00346590899
0.003470595206
0.003476451844
0.003481632559
0.00348909715
0.003515117658
0.003547117854
0.003500116489
0.003501974967
0.003484977286
0.003480027397
0.003474355396
0.00346864254
0.00346552444
0.003466590574
0.003470803801
0.003474889479
0.003475858231
0.003473091045
0.003468471757
0.003465534517
0.003466604071
0.003471373502
0.003477310865
0.00348252122
0.003489867053
0.003515561234
0.003547183137
0.003501804121
0.003504472828
0.003487058983
0.003481571807
0.003475508493
0.003469538371
0.003466253218
0.003467205548
0.003471340817
0.00347538179
0.003476341602
0.003473601296
0.003469043872
0.003466200998
0.003467407727
0.003472383076
0.003478639855
0.003484317108
0.003492196158
0.003518019157
0.003547975648
0.004338601511
0.004350749175
0.004340853093
0.004329110299
0.004321332155
0.004315355297
0.004310651851
0.004307928416
0.004307679795
0.00430921231
0.004310938593
0.004311371261
0.00431016126
0.004308311991
0.004307514239
0.004308997032
0.00431282695
0.004318241881
0.004324899962
0.004334616949
0.004346851015
0.004353810453
0.004400165681
0.004335162003
0.004347149805
0.004338909263
0.004327927398
0.004320560869
0.004314815453
0.004310247102
0.00430760644
0.004307410633
0.004308978706
0.004310723868
0.004311160403
0.004309938927
0.004308062789
0.00430722113
0.004308638477
0.004312363076
0.004317602349
0.004323951654
0.004333114091
0.004344228125
0.004348865259
0.004398459081
0.004334635547
0.004345955452
0.004337695213
0.00432690141
0.004319736807
0.004314154521
0.004309704883
0.00430714797
0.004307011178
0.004308619479
0.004310387276
0.004310828329
0.004309593241
0.004307685655
0.004306794768
0.004308141762
0.004311766412
0.004316865508
0.004323028817
0.004331984038
0.004342969591
0.004347911161
0.004398274225
0.004334545742
0.004345608326
0.004337169218
0.004326320921
0.004319173085
0.004313636605
0.004309237331
0.004306725192
0.004306624612
0.004308259433
0.004310042797
0.004310486997
0.004309242451
0.004307313601
0.004306391227
0.004307697508
0.004311273827
0.004316322815
0.004322450318
0.004331418024
0.004342514389
0.004347699392
0.004398255212
0.004334518298
0.004345485799
0.004336942106
0.004326022587
0.004318839767
0.004313294891
0.004308902171
0.004306402855
0.004306316096
0.004307962541
0.00430975321
0.004310198918
0.004308949859