/*--------------------------------*- C++ -*----------------------------------*\
| =========                 |                                                 |
| \\      /  F ield         | OpenFOAM: The Open Source CFD Toolbox           |
|  \\    /   O peration     | Version:  2.1.x                                 |
|   \\  /    A nd           | Web:      www.OpenFOAM.org                      |
|    \\/     M anipulation  |                                                 |
\*---------------------------------------------------------------------------*/
FoamFile
{
    version     2.0;
    format      ascii;
    class       scalarField;
    location    "1.8";
    object      age;
}
// * * * * * * * * * * * * * * * * * * * * * * * * * * * * * * * * * * * * * //


29
(
0.006421591008
0.005808432434
0.005611735624
0.005209603707
0.005034400144
0.004851099548
0.004614998636
0.004410315421
0.004217592988
0.004026699441
0.003810144687
0.00360911431
0.003412198014
0.003239712224
0.003017767252
0.002846007189
0.002633208355
0.002443320791
0.002219057553
0.00201347617
0.001833928726
0.001637052744
0.001429250573
0.001208688883
0.001005699651
0.0008074208443
0.0006219828737
0.0004152314736
0.0002172926412
)


// ************************************************************************* //
