/*--------------------------------*- C++ -*----------------------------------*\
| =========                 |                                                 |
| \\      /  F ield         | OpenFOAM: The Open Source CFD Toolbox           |
|  \\    /   O peration     | Version:  2.1.x                                 |
|   \\  /    A nd           | Web:      www.OpenFOAM.org                      |
|    \\/     M anipulation  |                                                 |
\*---------------------------------------------------------------------------*/
FoamFile
{
    version     2.0;
    format      ascii;
    class       scalarField;
    location    "1.8";
    object      d;
}
// * * * * * * * * * * * * * * * * * * * * * * * * * * * * * * * * * * * * * //


29
(
0.0005424767614
0.0006105912589
0.0005025813968
0.000518106498
0.0005077323755
0.0005004110192
0.0005027204194
0.0005081940008
0.00051122463
0.00115948562
0.0005417959253
0.0005072439334
0.0005051781541
0.0007113190006
0.001023200587
0.000961117327
0.0005002054349
0.0007785807053
0.0005210467315
0.0006100210318
0.0005006095163
0.0009232189218
0.0005758605363
0.0005018202578
0.0006227366805
0.000515379125
0.0005252439781
0.0005299515274
0.0006656714416
)


// ************************************************************************* //
