/*--------------------------------*- C++ -*----------------------------------*\
| =========                 |                                                 |
| \\      /  F ield         | OpenFOAM: The Open Source CFD Toolbox           |
|  \\    /   O peration     | Version:  2.1.x                                 |
|   \\  /    A nd           | Web:      www.OpenFOAM.org                      |
|    \\/     M anipulation  |                                                 |
\*---------------------------------------------------------------------------*/
FoamFile
{
    version     2.0;
    format      ascii;
    class       scalarField;
    location    "1.8";
    object      mass0;
}
// * * * * * * * * * * * * * * * * * * * * * * * * * * * * * * * * * * * * * //


29
(
8.358763511e-08
1.191928957e-07
6.64688017e-08
7.28208493e-08
6.853354443e-08
6.561138655e-08
6.652397619e-08
6.872064453e-08
6.995744348e-08
8.161964896e-07
8.327330965e-08
6.83359454e-08
6.750443511e-08
1.884481382e-07
5.608942193e-07
4.648660634e-07
6.553055422e-08
2.471209319e-07
7.406766441e-08
1.18859267e-07
6.568949536e-08
4.120147019e-07
9.998861998e-08
6.616726595e-08
1.264479999e-07
7.167688017e-08
7.587205865e-08
7.793042899e-08
1.544466165e-07
)


// ************************************************************************* //
