/*--------------------------------*- C++ -*----------------------------------*\
| =========                 |                                                 |
| \\      /  F ield         | OpenFOAM: The Open Source CFD Toolbox           |
|  \\    /   O peration     | Version:  2.1.x                                 |
|   \\  /    A nd           | Web:      www.OpenFOAM.org                      |
|    \\/     M anipulation  |                                                 |
\*---------------------------------------------------------------------------*/
FoamFile
{
    version     2.0;
    format      ascii;
    class       scalarField;
    location    "1.8";
    object      nParticle;
}
// * * * * * * * * * * * * * * * * * * * * * * * * * * * * * * * * * * * * * //


29
(
1.564241762
1.165755978
1.945788193
2.022933196
1.867645219
2.052733013
2.227313372
2.203417715
2.007077513
0.1444688632
1.750115309
2.127477371
1.99085481
0.6897553523
0.2848072401
0.2577337758
2.162394653
0.554721195
1.855977999
1.30555344
1.856812658
0.3330052074
1.407446094
2.046716947
1.187302755
1.833909414
1.769648404
1.822178638
0.920317007
)


// ************************************************************************* //
