/*--------------------------------*- C++ -*----------------------------------*\
| =========                 |                                                 |
| \\      /  F ield         | OpenFOAM: The Open Source CFD Toolbox           |
|  \\    /   O peration     | Version:  2.1.x                                 |
|   \\  /    A nd           | Web:      www.OpenFOAM.org                      |
|    \\/     M anipulation  |                                                 |
\*---------------------------------------------------------------------------*/
FoamFile
{
    version     2.0;
    format      ascii;
    class       Cloud<basicReactingParcel>;
    location    "1.8";
    object      positions;
}
// * * * * * * * * * * * * * * * * * * * * * * * * * * * * * * * * * * * * * //

29
(
(0.009101944293 0.0008118563186 0.001419766049) 19003
(0.01957938291 0.001142677974 0.007021208124) 3725
(0.01031716816 0.001032179944 0.005423365986) 45167
(0.0201748138 0.003761871592 0.006858558179) 3861
(0.01670054793 0.001636920889 0.01359528287) 91714
(0.01976401402 0.004413690987 0.007862991391) 59003
(0.0120928221 0.002250884101 0.01298918762) 86981
(0.01639623034 0.00343597065 0.01266426634) 87404
(0.01330879517 0.003879074533 0.009209654565) 67970
(0.0131532484 0.004554441217 0.01640991216) 107253
(0.01075639697 0.004924768784 0.014486529) 97741
(0.01433142696 0.007528249582 0.00611436251) 3353
(0.01241021365 0.005812949632 0.01216621667) 83257
(0.00840460321 0.007315200187 0.01105620234) 78716
(0.01043593123 0.007345731716 0.01424931143) 98525
(0.01356183573 0.007697705757 0.01423977382) 98554
(0.01182921538 0.008199408445 0.01332214424) 88938
(0.01103748861 0.009312667185 0.01511837437) 103825
(0.01399705618 0.009766954657 0.01422795573) 99141
(0.01563066676 0.01095061748 0.01353392201) 94647
(0.01126838243 0.01089387907 0.01408897309) 94422
(0.01117217773 0.0115052136 0.01397507675) 94617
(0.0145547154 0.01249881258 0.01113987939) 80137
(0.01281964608 0.01239684687 0.01234949659) 85027
(0.01140565021 0.01323550664 0.01300143037) 90110
(0.01171529071 0.01380770138 0.01184195777) 8569
(0.0124567392 0.01413661782 0.0124448101) 85413
(0.01261446026 0.01494300533 0.01185208326) 85611
(0.01281054359 0.01542691825 0.01250005546) 9380
)


// ************************************************************************* //
