/*--------------------------------*- C++ -*----------------------------------*\
| =========                 |                                                 |
| \\      /  F ield         | OpenFOAM: The Open Source CFD Toolbox           |
|  \\    /   O peration     | Version:  2.1.x                                 |
|   \\  /    A nd           | Web:      www.OpenFOAM.org                      |
|    \\/     M anipulation  |                                                 |
\*---------------------------------------------------------------------------*/
FoamFile
{
    version     2.0;
    format      ascii;
    class       vectorField;
    location    "1.8";
    object      U;
}
// * * * * * * * * * * * * * * * * * * * * * * * * * * * * * * * * * * * * * //


29
(
(-0.5203462281 -2.357169551 -1.696722609)
(1.203317535 -2.553821935 -0.9312572047)
(-0.3826295011 -2.651177356 -1.24046612)
(1.451848419 -2.340611909 -1.06719441)
(0.822311582 -2.836425223 0.2144157867)
(1.476105815 -2.378202803 -0.9422772797)
(-0.08704163095 -2.961752176 0.1045726892)
(0.8722464848 -2.834337104 0.03677419503)
(0.1894630921 -2.86006827 -0.770774906)
(0.1616583132 -2.852236384 0.9675795679)
(-0.4530534315 -2.8964824 0.5161747073)
(0.5021609219 -2.340616983 -1.750884788)
(-0.02605222046 -2.972639851 -0.09684987794)
(-1.256893556 -2.681363404 -0.4431072402)
(-0.6818114146 -2.873602786 0.577839518)
(0.3718804943 -2.921709358 0.6093107688)
(-0.2527554518 -2.952288566 0.3097886134)
(-0.5963055889 -2.738670236 1.067582301)
(0.6704586999 -2.80243152 0.7738673871)
(1.547919842 -2.506555608 0.5112100784)
(-0.6679213697 -2.778176911 0.8617196658)
(-0.8094894345 -2.748293815 0.8992611967)
(1.432648138 -2.44828107 -0.9483426541)
(0.2635080247 -2.976345104 -0.1240711467)
(-1.085776021 -2.74784171 0.497501878)
(-0.9696144641 -2.712918981 -0.8131001853)
(-0.06943098247 -2.99375333 -0.08857647618)
(0.2753302562 -2.544692477 -1.558541661)
(1.428500396 -2.63732515 0.0002551113254)
)


// ************************************************************************* //
