/*--------------------------------*- C++ -*----------------------------------*\
| =========                 |                                                 |
| \\      /  F ield         | OpenFOAM: The Open Source CFD Toolbox           |
|  \\    /   O peration     | Version:  2.1.x                                 |
|   \\  /    A nd           | Web:      www.OpenFOAM.org                      |
|    \\/     M anipulation  |                                                 |
\*---------------------------------------------------------------------------*/
FoamFile
{
    version     2.0;
    format      ascii;
    class       surfaceScalarField;
    location    "1";
    object      phi;
}
// * * * * * * * * * * * * * * * * * * * * * * * * * * * * * * * * * * * * * //

dimensions      [1 1 -1 0 0 0 0];

internalField   nonuniform List<scalar> 
5536
(
3.10871471e-11
-2.090179239e-10
-1.166572498e-11
-7.517127341e-12
-3.076808617e-10
4.818773871e-11
-1.345679843e-10
-1.004207573e-09
2.975339771e-10
-5.523718049e-10
-2.546171301e-09
8.902110409e-10
-1.416882815e-09
-4.575998192e-09
-1.819333166e-09
-2.669712817e-10
1.282145735e-10
-2.094172462e-09
1.76348839e-10
4.604606225e-09
4.127971394e-10
-4.319377824e-09
1.447479713e-10
4.636818861e-09
-7.669458514e-10
-4.056613273e-09
3.013853775e-10
1.813218573e-10
1.663085145e-11
-1.686419964e-10
-1.265777676e-11
3.420155557e-10
-1.30714947e-11
-3.885258573e-10
8.42005823e-11
1.231221937e-09
-2.514939369e-10
-1.483784427e-09
5.419131241e-10
2.918601604e-09
-9.421991034e-10
-3.292519832e-09
1.414363901e-09
4.471173224e-09
-1.951220572e-09
-4.889125283e-09
2.599540876e-09
6.485609379e-09
-3.335133738e-09
-6.715832358e-09
4.025132035e-09
9.348278651e-09
-8.717042742e-09
5.086158939e-09
-4.769073672e-09
-6.505832717e-09
-1.222511479e-08
7.757915459e-09
-1.940319404e-09
-7.672782043e-10
3.270667125e-09
3.683136368e-10
-3.157829341e-09
-7.146776897e-10
2.295961802e-09
4.480375245e-10
-3.161900616e-09
-3.153156339e-10
2.732534467e-09
2.942596409e-10
-3.399490537e-09
-2.874627007e-10
3.999158388e-09
2.295875785e-10
-3.693590912e-09
2.027184992e-10
3.363228118e-09
-5.410366748e-10
-2.6490584e-09
4.851423987e-11
1.661868185e-10
1.924507791e-11
-1.798684331e-10
-6.89627419e-12
4.525905943e-10
-3.253381083e-11
-5.395353911e-10
1.579024974e-10
1.722676802e-09
-4.157957538e-10
-1.913332964e-09
8.09237039e-10
3.552611103e-09
-1.305428956e-09
-3.610498889e-09
1.850021207e-09
5.04303667e-09
-2.411462767e-09
-4.834625779e-09
2.994061702e-09
6.541800246e-09
-3.606280022e-09
-5.924278948e-09
4.242829829e-09
8.13358364e-09
-4.92531705e-09
-7.011967149e-09
5.811117083e-09
1.308326499e-08
-7.689145012e-09
-1.705420073e-08
9.534709763e-09
1.511372946e-08
-1.078967639e-08
-1.849542694e-08
1.175480879e-08
-1.95329319e-08
1.395193572e-08
-1.219158074e-08
1.233687278e-09
-3.341746471e-09
-5.96671198e-10
2.095160363e-09
7.86348666e-10
-2.644029216e-09
-8.336988326e-10
3.41018873e-09
9.680947284e-10
-3.549635371e-09
-9.476678327e-10
3.956809551e-09
6.743940398e-10
-4.462277865e-09
-4.588961111e-10
3.956804279e-09
2.458454766e-10
-4.237686179e-09
-9.030631869e-11
3.393507739e-09
1.047393579e-10
-3.065423683e-09
1.796127858e-10
2.028257703e-09
-2.834869502e-10
-1.574439681e-09
-1.330460577e-11
2.157528699e-10
2.183647706e-11
-2.755822564e-10
1.117757502e-11
6.553707792e-10
-8.808073051e-11
-8.067823386e-10
2.763093448e-10
2.032032094e-09
-5.865620705e-10
-2.070302771e-09
9.810498604e-10
3.445621718e-09
-1.414537814e-09
-3.110845228e-09
1.840780911e-09
4.327333197e-09
-2.234850987e-09
-3.704910435e-09
2.602709267e-09
5.100007948e-09
-2.970673951e-09
-4.434200647e-09
3.392405922e-09
5.974673203e-09
-3.909257606e-09
-5.829905158e-09
5.029723273e-09
2.474875901e-08
-1.085979054e-08
-3.095780976e-08
1.762389024e-08
2.733222583e-08
-2.145140586e-08
-3.93560752e-08
2.155826974e-08
2.382568327e-08
-2.036424269e-08
-3.17911692e-08
2.014759492e-08
2.858436637e-08
-3.326399701e-08
2.295803182e-08
-2.153011781e-08
-2.6124017e-08
-4.168838256e-08
6.111257483e-09
3.729552122e-09
-6.330884954e-09
-3.196969836e-09
4.139660822e-09
2.442603657e-09
-4.233235203e-09
-1.856638607e-09
3.220670166e-09
1.435068646e-09
-3.435741355e-09
-1.167817743e-09
3.573239448e-09
1.069694205e-09
-3.535015914e-09
-1.033455926e-09
4.567987637e-09
7.434603205e-10
-4.286191116e-09
-4.917412896e-10
4.156050624e-09
1.25066498e-10
-3.762635479e-09
1.653634746e-10
2.66867828e-09
-4.665772956e-12
-2.183648955e-09
1.016029298e-10
1.277008434e-09
-8.009787916e-11
-1.067411229e-09
-1.944514564e-11
3.677772634e-10
-1.405454872e-12
-5.104908186e-10
6.427436061e-11
9.946311421e-10
-2.072531971e-10
-1.209509835e-09
4.437369169e-10
2.039277779e-09
-7.25216577e-10
-1.969149527e-09
1.001460767e-09
2.708690571e-09
-1.257222679e-09
-2.355713702e-09
1.500835508e-09
3.189180543e-09
-1.756416045e-09
-2.969917339e-09
2.074193982e-09
4.262329116e-09
-2.533700137e-09
-4.790698193e-09
3.262212778e-09
7.2895529e-09
-4.362129048e-09
-1.045144701e-08
6.25058379e-09
3.073070962e-08
-1.1697172e-08
-2.616762115e-08
2.012813759e-08
4.671801529e-08
-2.950702238e-08
-4.542850166e-08
3.575206133e-08
4.108205716e-08
-3.673222133e-08
-4.728900888e-08
3.510427279e-08
4.05599401e-08
-3.446483492e-08
-4.734590187e-08
3.590654254e-08
4.744072399e-08
-3.856248202e-08
-5.377713191e-08
4.14542857e-08
-5.805187438e-08
-4.248986177e-08
9.576452837e-09
7.53136511e-09
-8.877769793e-09
-5.975239825e-09
5.684667674e-09
4.180665915e-09
-4.403976965e-09
-2.920545657e-09
3.599371256e-09
2.150943168e-09
-2.593404489e-09
-1.690842577e-09
3.129818775e-09
1.404354707e-09
-2.455499831e-09
-1.216863787e-09
3.512680531e-09
1.078788054e-09
-3.551527802e-09
-9.03575114e-10
3.716954175e-09
5.835396172e-10
-2.999877592e-09
-3.604552238e-10
3.174832028e-09
3.598055437e-11
-2.502193959e-09
2.644252134e-10
1.631617302e-09
-4.261063526e-11
-1.195776475e-09
8.461233833e-12
8.791625824e-10
-3.392417922e-11
-7.314188211e-10
7.101438266e-11
7.197677069e-10
-1.157218739e-10
-9.661479346e-10
2.292658838e-10
1.431664799e-09
-4.374427924e-10
-1.630152885e-09
6.595398176e-10
1.901622869e-09
-8.460844988e-10
-1.876477486e-09
9.912298702e-10
2.15336185e-09
-1.142638657e-09
-2.164669424e-09
1.38257447e-09
3.15898798e-09
-1.802437649e-09
-3.741120688e-09
2.510621906e-09
5.994760473e-09
-3.611345387e-09
-7.550490539e-09
5.206067542e-09
1.401636915e-08
-7.588875309e-09
-1.599745707e-08
9.801853291e-09
2.153442167e-08
-1.098795397e-08
-1.933212265e-08
1.500268248e-08
3.909604223e-08
-2.236135366e-08
-3.327534457e-08
3.120605766e-08
4.816450617e-08
-3.801399343e-08
-4.546050459e-08
4.144422948e-08
5.185002638e-08
-4.337113577e-08
-5.357221809e-08
4.572289225e-08
5.898834238e-08
-4.879897098e-08
-6.232253174e-08
5.185452568e-08
6.210146662e-08
-5.393354884e-08
-6.540349958e-08
5.437708044e-08
-5.994878793e-08
-5.128168249e-08
1.03789567e-08
-1.089626295e-08
-1.008156518e-08
7.106297809e-09
7.605115605e-09
-6.079302931e-09
-4.33829194e-09
3.058408643e-09
2.510723995e-09
-1.998259723e-09
-1.521320673e-09
1.638562991e-09
1.040688909e-09
-9.555285837e-10
-8.213280188e-10
1.689289037e-09
7.432019518e-10
-1.028738664e-09
-7.712607555e-10
3.567648263e-09
8.840077837e-10
-3.311157605e-09
-6.771389338e-10
2.271398871e-09
3.458747532e-10
-1.632030959e-09
-1.813851155e-10
1.827824859e-09
2.315423062e-12
-1.226563739e-09
1.570956846e-10
4.555140432e-09
2.892376618e-10
-4.954126199e-08
-8.166628405e-11
6.159242889e-10
-3.96712586e-11
-5.109551618e-10
1.17039376e-10
1.142596383e-09
-2.360007054e-10
-1.182541189e-09
4.577635049e-10
1.761895146e-09
-7.024865876e-10
-1.791453059e-09
8.968062338e-10
1.911667658e-09
-1.042119573e-09
-1.983398923e-09
1.188103503e-09
2.38505709e-09
-1.428882902e-09
-2.73449567e-09
1.894233844e-09
4.555888676e-09
-2.7089054e-09
-5.418539511e-09
3.955938549e-09
9.008499889e-09
-5.654533034e-09
-1.016615897e-08
7.787940236e-09
1.612091502e-08
-1.051650977e-08
-1.616105947e-08
1.260264522e-08
2.031039793e-08
-1.405018264e-08
-2.316300345e-08
1.679017508e-08
3.092090104e-08
-2.100330802e-08
-3.143103983e-08
2.626775476e-08
4.251431626e-08
-3.180013821e-08
-4.106517617e-08
3.703667666e-08
5.338752535e-08
-4.20392922e-08
-5.238469627e-08
4.703335607e-08
6.364560689e-08
-5.186673683e-08
-6.324193413e-08
5.594755245e-08
6.698583476e-08
-5.848046383e-08
-6.66868608e-08
5.884639461e-08
6.002419787e-08
-5.927789352e-08
5.375418237e-08
-5.708055865e-08
-8.179053475e-09
-1.160301477e-08
9.735048985e-09
1.060783196e-08
-7.954641943e-09
-7.851982763e-09
4.560693454e-09
4.756877082e-09
-3.323012224e-09
-2.490214649e-09
1.294428616e-09
1.235683443e-09
-8.681439764e-10
-6.532721543e-10
5.434789383e-10
4.026920344e-10
-3.140372162e-10
-2.994433436e-10
5.523443232e-10
2.680427004e-10
-2.617472884e-10
-2.880672925e-10
2.587080451e-09
3.94864656e-10
-1.556839654e-09
-4.867927784e-10
1.126341332e-09
2.068738985e-10
-7.509295668e-10
-7.841538505e-11
1.036342701e-09
1.016566923e-10
-3.602885217e-09
-3.99624125e-09
1.850642191e-07
3.312208242e-08
-1.933165496e-07
3.790417936e-10
4.660286355e-10
-1.017801427e-09
-1.258198887e-09
1.301471312e-10
1.107397239e-09
-2.639935174e-10
-9.803293344e-10
5.339267244e-10
1.714820886e-09
-8.089435495e-10
-1.564120125e-09
1.038833725e-09
2.036195893e-09
-1.25601384e-09
-2.043332177e-09
1.52623802e-09
3.135242362e-09
-1.968777609e-09
-3.634810315e-09
2.732660714e-09
6.33101511e-09
-3.910973814e-09
-7.577238371e-09
5.500570237e-09
1.128277458e-08
-7.431002255e-09
-1.295047679e-08
9.61954203e-09
1.715310211e-08
-1.201847818e-08
-1.861088977e-08
1.462516631e-08
2.43392215e-08
-1.784213705e-08
-2.462108804e-08
2.123199659e-08
3.180337952e-08
-2.452182563e-08
-3.130878272e-08
2.784915814e-08
4.027519507e-08
-3.142766632e-08
-3.904065915e-08
3.541185951e-08
5.084831813e-08
-3.987265862e-08
-4.880526751e-08
4.473243895e-08
6.148418815e-08
-4.961214831e-08
-5.877155302e-08
5.372058222e-08
6.45224218e-08
-5.604322287e-08
-6.095081386e-08
5.572382869e-08
5.563993519e-08
-5.257673637e-08
-5.103922194e-08
4.729933826e-08
4.175344841e-08
-3.719485306e-08
3.5815691e-08
-4.142232004e-08
7.286452351e-09
1.000784595e-08
-6.348138721e-09
-9.389220279e-09
6.137195709e-09
7.552837113e-09
-4.410294662e-09
-5.04757866e-09
2.378158256e-09
2.862373074e-09
-1.654296468e-09
-1.442622916e-09
6.123638357e-10
6.93198457e-10
-4.506443455e-10
-3.392823884e-10
1.93359138e-10
1.778161017e-10
-1.452440867e-10
-1.062802267e-10
1.205946255e-10
7.633015061e-11
-1.026183687e-10
-6.448346752e-11
6.497680817e-10
7.537473457e-11
-1.608217922e-10
-1.627106524e-10
4.829037495e-10
1.185213179e-10
-3.002675026e-10
-5.125945714e-11
6.340414209e-10
2.060786054e-11
-2.107503032e-10
-1.403483752e-11
1.274622115e-08
7.832795944e-10
-2.813553185e-10
-6.23729368e-11
5.539324086e-10
-5.172506728e-11
-3.436283334e-10
1.278731899e-10
8.680393335e-10
-3.077202428e-10
-8.011644374e-10
5.381138208e-10
1.394405591e-09
-7.697333609e-10
-1.25963491e-09
1.004400275e-09
2.060206268e-09
-1.302750319e-09
-2.230267204e-09
1.78693905e-09
4.431169888e-09
-2.651007689e-09
-5.753938664e-09
4.05692119e-09
9.573067392e-09
-6.021947345e-09
-1.249219454e-08
8.413497209e-09
1.579903838e-08
-1.101926986e-08
-1.998193161e-08
1.363583679e-08
2.146309907e-08
-1.614064029e-08
-2.595450762e-08
1.851613396e-08
2.668800868e-08
-2.082784101e-08
-3.036373638e-08
2.315708154e-08
3.215068153e-08
-2.556222636e-08
-3.426895976e-08
2.80816511e-08
3.847764672e-08
-3.07810247e-08
-3.876613355e-08
3.378145016e-08
4.688658573e-08
-3.722023186e-08
-4.534852994e-08
4.109169857e-08
5.560068035e-08
-4.504856287e-08
-5.229116044e-08
4.829114553e-08
5.651017962e-08
-4.975566781e-08
-5.15557818e-08
4.86174281e-08
4.5745023e-08
-4.482543123e-08
-3.99688948e-08
3.929985604e-08
3.271701838e-08
-3.348742714e-08
-2.740480729e-08
2.860712576e-08
-2.01588102e-08
-2.490502315e-08
-2.974421991e-09
-6.840417656e-09
6.502990074e-09
4.716782758e-09
-3.281366208e-09
-5.54526133e-09
2.954813351e-09
4.056803977e-09
-1.87502483e-09
-2.590785533e-09
1.104508336e-09
1.49115157e-09
-7.122855322e-10
-8.13690498e-10
3.433588213e-10
4.454481755e-10
-2.847003896e-10
-2.646357891e-10
1.730205717e-10
2.02293494e-10
-3.652218133e-10
-2.181665487e-10
2.58093765e-10
2.275589409e-10
-9.474090786e-10
-1.066935947e-10
4.653593962e-11
6.451123373e-12
-3.025369343e-11
3.743522681e-12
1.790828668e-10
5.386826157e-11
-9.427642279e-11
-5.033415074e-11
2.038520716e-10
3.900304159e-11
-1.92163294e-10
-2.761752758e-11
1.946333825e-10
-1.726060436e-12
-2.233656691e-10
5.179581856e-11
4.159445067e-10
-1.378890859e-10
-4.500325113e-10
2.609898445e-10
7.562308931e-10
-3.963188074e-10
-7.076665225e-10
5.397631254e-10
1.208800796e-09
-7.237242308e-10
-1.328421665e-09
1.017861159e-09
2.931148096e-09
-1.563693559e-09
-5.827321303e-09
2.811269668e-09
7.771123253e-09
-4.59657824e-09
-1.104228212e-08
7.080982034e-09
1.596008294e-08
-1.026903331e-08
-1.935230088e-08
1.396497388e-08
2.482690669e-08
-1.78603611e-08
-2.915500231e-08
2.160660369e-08
3.150506522e-08
-2.48923945e-08
-3.687640098e-08
2.753110835e-08
3.531962887e-08
-2.950074452e-08
-4.063845169e-08
3.091752754e-08
3.752762602e-08
-3.196397848e-08
-4.137826387e-08
3.283340949e-08
3.986866141e-08
-3.372250582e-08
-4.147651878e-08
3.485484345e-08
4.423548075e-08
-3.643465285e-08
-4.33943747e-08
3.848978313e-08
4.897600556e-08
-4.067341542e-08
-4.564012741e-08
4.218869923e-08
4.632436067e-08
-4.203603594e-08
-4.098769692e-08
3.956600409e-08
3.405565766e-08
-3.494813681e-08
-2.832380737e-08
2.92255789e-08
2.22226907e-08
-2.381698914e-08
-1.745724828e-08
1.982064924e-08
1.787558444e-08
-1.388602233e-08
1.702874431e-08
-1.758993189e-08
2.102214319e-09
-1.333511447e-09
-3.626355055e-09
3.31444817e-09
2.220614102e-09
-1.454354304e-09
-2.591074615e-09
1.184380468e-09
1.794491102e-09
-7.993007576e-10
-1.139396394e-09
4.724724887e-10
7.008169795e-10
-3.667983577e-10
-4.680488759e-10
3.03126381e-10
4.320618736e-10
-4.173259557e-10
-6.602204074e-10
1.042607422e-09
1.306944009e-09
-2.580200607e-09
-2.273094753e-09
3.59365178e-09
2.558499302e-09
-8.46284155e-09
-1.288459825e-09
3.473117883e-11
2.634535969e-11
-2.142454308e-11
-3.79522444e-11
3.371628502e-11
4.562870916e-11
-1.512283382e-11
-4.82681256e-11
1.559302718e-10
4.393503836e-11
-1.060230762e-10
-2.035099094e-11
2.294008725e-10
-2.524922119e-11
-2.179584372e-10
9.912961262e-11
4.212933718e-10
-1.811680279e-10
-3.908227696e-10
2.646376718e-10
7.024038103e-10
-3.704393636e-10
-8.962212841e-10
5.685825023e-10
1.83385925e-09
-9.930717045e-10
-3.231904143e-09
1.806806849e-09
1.594625882e-08
-3.549469074e-09
-3.591111678e-08
1.180554598e-08
1.786846891e-08
-1.462461943e-08
-3.214940567e-08
1.509970129e-08
2.265887345e-08
-1.653442788e-08
-2.700464136e-08
1.947772911e-08
3.219042794e-08
-2.347423184e-08
-3.418517933e-08
2.792099879e-08
4.091492932e-08
-3.220847581e-08
-4.328061094e-08
3.577754174e-08
4.522324552e-08
-3.824090189e-08
-4.836764575e-08
3.948256077e-08
4.505221694e-08
-3.964589813e-08
-4.787406713e-08
3.904828038e-08
4.312606022e-08
-3.808523834e-08
-4.433329753e-08
3.715872414e-08
4.255295581e-08
-3.65799912e-08
-4.139921505e-08
3.642344382e-08
4.218387786e-08
-3.637878487e-08
-3.849817455e-08
3.574625729e-08
3.565595885e-08
-3.374006888e-08
-3.03924049e-08
2.99979666e-08
2.297615991e-08
-2.49247886e-08
-1.81619756e-08
1.956747446e-08
1.336647717e-08
-1.508207066e-08
-9.921636238e-09
1.216937306e-08
1.101327477e-08
-8.186809796e-09
1.08436478e-08
-1.089052092e-08
9.13042864e-10
1.437430853e-09
-4.75757845e-10
-1.586010846e-09
9.296645844e-10
1.507942402e-09
-5.6798122e-10
-1.279511474e-09
5.93037181e-10
9.981808693e-10
-4.538644256e-10
-7.422067894e-10
3.436928502e-10
5.686508802e-10
-3.407595692e-10
-5.426234884e-10
5.501186632e-10
7.952220596e-10
-6.252271598e-10
-1.526740155e-09
4.389896137e-09
2.794896549e-09
-6.101992021e-09
-4.036119517e-09
1.202949811e-08
3.72011422e-09
-1.358353982e-08
-1.609771593e-09
1.260008544e-11
8.841491449e-12
-1.155311338e-11
-8.799024317e-12
4.57068088e-12
1.329949367e-11
-9.019381186e-13
-1.30494323e-11
7.281972164e-11
1.219608681e-11
-6.796926753e-11
1.231803084e-11
2.130265063e-10
-4.937446037e-11
-2.284451915e-10
1.006268212e-10
4.236649238e-10
-1.66817217e-10
-5.939468693e-10
3.011062378e-10
1.636227049e-09
-7.017068095e-10
-3.358579438e-09
1.682435108e-09
6.372224317e-09
-3.39830456e-09
-1.167401475e-08
5.540810769e-09
5.33438163e-08
-1.006950528e-08
-5.531741183e-08
2.977565157e-08
5.219491691e-08
-4.13288659e-08
-6.52927713e-08
4.030129867e-08
3.383181743e-08
-3.35076661e-08
-4.249754031e-08
2.908281949e-08
3.615486506e-08
-2.888417431e-08
-3.898155044e-08
3.144265012e-08
4.452635548e-08
-3.51398642e-08
-4.555623322e-08
3.881391522e-08
5.004154637e-08
-4.165479379e-08
-5.071997321e-08
4.3171934e-08
4.949859564e-08
-4.32271543e-08
-4.993475351e-08
4.200726959e-08
4.472292937e-08
-3.993254312e-08
-4.410643346e-08
3.750519578e-08
3.967793773e-08
-3.514291297e-08
-3.721744352e-08
3.301503184e-08
3.448544675e-08
-3.093136642e-08
-3.012008577e-08
2.841714454e-08
2.527471128e-08
-2.502695985e-08
-2.038740241e-08
2.072282263e-08
1.395956119e-08
-1.602310772e-08
-1.040743872e-08
1.175598987e-08
7.172624159e-09
-8.599783703e-09
-5.073071481e-09
6.77278515e-09
5.772848737e-09
-6.107626084e-09
-4.014146455e-09
6.314591862e-09
5.623793955e-09
-4.279880018e-09
-7.14989198e-09
2.972250541e-10
2.036700745e-10
-6.728248573e-11
-4.35218024e-10
3.017927955e-10
5.271133938e-10
-1.1925549e-10
-5.74467866e-10
3.181851541e-10
5.997546219e-10
-1.652821892e-10
-6.111402825e-10
3.302023886e-10
6.139637273e-10
-3.088467414e-10
-6.384020152e-10
6.648767701e-10
8.387053823e-10
-7.619664735e-10
-1.563289185e-09
7.735730522e-09
3.084488424e-09
-9.039211051e-09
-4.290883281e-09
1.271706777e-08
3.177664544e-09
-1.007719934e-08
-1.165459537e-09
1.675242718e-11
1.247484803e-11
-2.757816437e-11
-1.752890089e-12
2.636462603e-13
7.248599243e-13
-5.552434707e-13
-3.698540155e-13
8.094160854e-11
-2.059401791e-14
-1.033617051e-10
2.887971359e-11
2.585418017e-10
-7.548690359e-11
-2.95967743e-10
1.347900511e-10
1.056423272e-09
-3.220356606e-10
-1.858142307e-09
1.060467774e-09
5.761150927e-09
-2.706970317e-09
-7.726379709e-09
5.227847785e-09
1.745633826e-08
-8.535041472e-09
-1.981335166e-08
1.097607832e-08
4.440375175e-08
-1.674979562e-08
-3.25419965e-08
2.636104952e-08
6.223338007e-08
-4.149894418e-08
-4.929518604e-08
5.205199642e-08
4.876095472e-08
-5.050233866e-08
-4.87001529e-08
4.296833028e-08
4.257712378e-08
-3.804809464e-08
-4.596089468e-08
3.71766927e-08
4.697952797e-08
-3.853310721e-08
-4.880639548e-08
4.053377767e-08
5.094904552e-08
-4.22067566e-08
-5.100547946e-08
4.293463476e-08
4.938769596e-08
-4.238301073e-08
-4.804194881e-08
4.053737024e-08
4.244287646e-08
-3.767359367e-08
-3.977914143e-08
3.423313759e-08
3.396520086e-08
-3.063835651e-08
-2.998590231e-08
2.712626048e-08
2.546114859e-08
-2.368091796e-08
-2.065399827e-08
2.012524951e-08
1.583157001e-08
-1.635369872e-08
-1.171383888e-08
1.252565196e-08
7.486864001e-09
-9.03948342e-09
-5.142853771e-09
6.303269934e-09
3.488727312e-09
-4.494124435e-09
-2.294720597e-09
3.494787425e-09
2.640962525e-09
-3.068143099e-09
-1.568487907e-09
3.027113151e-09
3.021118108e-09
-1.603501753e-09
-3.294151776e-09
3.133715341e-10
-6.584867776e-10
-2.579717867e-10
7.240310404e-11
2.643515103e-11
-4.742818294e-11
-5.305640278e-11
2.647512684e-11
8.816744162e-11
1.076386454e-11
-1.558406127e-10
3.748889631e-12
2.61903516e-10
8.844993267e-11
-4.154187643e-10
2.930606846e-10
6.163023347e-10
-2.601296077e-10
-7.840129941e-10
9.970840381e-10
1.028157367e-09
-1.142639836e-09
-1.80807615e-09
9.324071452e-09
3.178569257e-09
-8.060554422e-09
-3.225457996e-09
6.877262063e-09
1.689262484e-09
-4.134250348e-09
-6.464565638e-10
4.827574392e-11
3.601391905e-11
-8.87255685e-11
-5.232435797e-12
5.917267088e-13
6.81709127e-13
-6.535158044e-13
-6.360943337e-13
1.360405934e-10
-5.662789928e-13
-1.793826213e-10
4.992848826e-11
3.543101779e-10
-1.219106047e-10
-4.923911209e-10
2.692324441e-10
2.68486282e-09
-9.643815677e-10
-3.351536005e-09
2.341418111e-09
8.697013274e-09
-4.374356406e-09
-9.101964515e-09
7.080724438e-09
1.767118805e-08
-1.049501043e-08
-1.761130619e-08
1.461518793e-08
2.882414257e-08
-1.87908163e-08
-2.867540035e-08
2.556564507e-08
3.955291105e-08
-3.02220507e-08
-4.023591397e-08
3.34511518e-08
4.55991517e-08
-3.650712024e-08
-4.792359936e-08
3.909845668e-08
4.865156384e-08
-4.082837089e-08
-5.11782812e-08
4.179330513e-08
5.060594256e-08
-4.228174464e-08
-5.186916151e-08
4.244240353e-08
5.081903778e-08
-4.215616779e-08
-5.010329145e-08
4.111817113e-08
4.594688537e-08
-3.906261326e-08
-4.303207866e-08
3.596118256e-08
3.620169233e-08
-3.205488279e-08
-3.182286566e-08
2.77335192e-08
2.544375667e-08
-2.337292598e-08
-2.058987289e-08
1.92197713e-08
1.591430945e-08
-1.537278806e-08
-1.150244101e-08
1.186127048e-08
8.138537281e-09
-8.752728873e-09
-5.195280176e-09
6.170091447e-09
3.311325156e-09
-4.211183811e-09
-1.937295392e-09
2.879736094e-09
1.401222994e-09
-2.071899881e-09
-7.538583323e-10
1.591828853e-09
8.314656806e-10
-1.316041788e-09
-4.048884739e-10
1.175425192e-09
7.10142625e-10
-3.128387474e-10
1.246182945e-09
-1.148929322e-09
1.090507163e-09
-1.336922364e-09
-1.224419396e-09
8.431718886e-10
1.234846219e-10
-2.705989273e-10
-5.681691995e-10
-4.999060773e-11
4.260074264e-10
-1.536907409e-11
-3.603277107e-10
-1.061192814e-10
2.795497934e-10
-3.248143567e-12
-1.662202278e-10
4.394794559e-11
1.67244739e-10
-2.933474959e-11
-3.270567412e-10
9.034335734e-10
7.7521397e-10
-5.01919181e-10
-1.559221931e-09
5.65676792e-09
2.028121372e-09
-3.026397766e-09
-1.371610579e-09
2.231610478e-09
5.853599675e-10
-1.055128356e-09
-4.010682225e-10
3.410274817e-10
4.19849606e-10
-1.197238313e-09
-1.351281199e-10
-6.352232879e-12
7.7266726e-11
4.985995981e-12
-9.619703793e-11
2.800853265e-10
3.994778559e-11
-4.240782136e-10
1.098296266e-10
8.185692479e-10
-3.203102946e-10
-1.423394638e-09
8.491813438e-10
4.097434391e-09
-1.886238076e-09
-5.249525715e-09
3.41021451e-09
9.751499153e-09
-5.424821231e-09
-1.128454676e-08
7.981003593e-09
1.797398339e-08
-1.115892425e-08
-1.964194846e-08
1.502007888e-08
2.878192701e-08
-1.953676922e-08
-3.006618898e-08
2.455458155e-08
4.02894046e-08
-2.975328999e-08
-4.118052355e-08
3.469687891e-08
4.903038974e-08
-3.889040614e-08
-4.986050865e-08
4.186638398e-08
5.241167615e-08
-4.337850695e-08
-5.271271317e-08
4.356918685e-08
5.218248315e-08
-4.286068828e-08
-5.149986067e-08
4.157808392e-08
4.854792388e-08
-3.969141995e-08
-4.595692022e-08
3.695359298e-08
3.920359804e-08
-3.324969478e-08
-3.445010905e-08
2.877689781e-08
2.681820419e-08
-2.39475964e-08
-2.145131593e-08
1.919057629e-08
1.573657863e-08
-1.481924276e-08
-1.12182732e-08
1.100336676e-08
7.673873355e-09
-7.812321763e-09
-4.624276601e-09
5.272598749e-09
2.949674244e-09
-3.401020036e-09
-1.424338578e-09
2.155511122e-09
9.885684373e-10
-1.4040264e-09
-4.333734865e-10
9.810467245e-10
3.315428385e-10
-7.499222602e-10
-1.258549485e-10
6.015002368e-10
2.079441566e-10
-5.323582537e-10
-1.292727346e-10
4.817693718e-10
1.592511735e-10
-9.444016223e-11
4.135430591e-10
-4.412250777e-10
1.529079477e-09
-1.496729686e-09
-1.003872356e-09
5.69626495e-10
4.25466804e-10
-4.863939359e-10
-2.48152504e-10
3.804501029e-11
8.501124887e-11
-4.949048981e-11
-2.350964168e-11
3.477733047e-12
5.463417623e-12
-3.916770314e-12
-4.309366541e-12
1.234407497e-11
1.352571387e-11
-5.490633854e-13
-4.076586927e-11
1.417157384e-10
1.057284821e-10
-2.091997075e-12
-2.226333008e-10
9.541097213e-10
3.146217579e-10
-8.435710029e-11
-2.382965994e-10
3.970634443e-10
1.15632808e-10
-1.011617727e-10
-1.391558209e-10
1.160762033e-09
1.674356688e-10
-1.316546233e-10
1.640845075e-10
1.071751159e-10
-1.670432742e-10
-1.753839779e-10
2.974891567e-10
4.649647626e-10
-2.640019938e-10
-6.876411395e-10
4.657994861e-10
2.27958104e-09
-1.102504026e-09
-3.403829353e-09
2.34267284e-09
6.997734089e-09
-4.076409705e-09
-9.425576239e-09
6.318294859e-09
1.400652814e-08
-9.067101362e-09
-1.788428329e-08
1.230214412e-08
2.289772034e-08
-1.59755329e-08
-2.746044604e-08
1.999629623e-08
3.287307167e-08
-2.424751026e-08
-3.68179048e-08
2.861597461e-08
4.314052187e-08
-3.295762773e-08
-4.606660882e-08
3.699478496e-08
5.099831183e-08
-4.024993365e-08
-5.25469337e-08
4.211441368e-08
5.246081188e-08
-4.225586502e-08
-5.170841844e-08
4.099937457e-08
4.990170439e-08
-3.902671992e-08
-4.73992429e-08
3.663254927e-08
4.225561809e-08
-3.354415063e-08
-3.74658107e-08
2.94671539e-08
2.890596775e-08
-2.457480497e-08
-2.286558277e-08
1.942464883e-08
1.60755047e-08
-1.459201166e-08
-1.109241221e-08
1.044157223e-08
7.337390062e-09
-7.111874884e-09
-4.305427628e-09
4.578430157e-09
2.438228607e-09
-2.754787127e-09
-1.068956047e-09
1.542072729e-09
5.647692615e-10
-8.578428379e-10
-2.097773615e-10
5.424954067e-10
1.869429736e-10
-4.097060851e-10
-9.904303016e-11
3.502774103e-10
6.20573077e-11
-3.271879205e-10
-4.114035082e-11
3.19041999e-10
8.282343251e-11
-2.826793743e-10
-4.381490657e-11
2.504283727e-10
5.561836693e-11
-2.861425064e-11
2.053810578e-10
-2.250499558e-10
1.263912135e-09
-8.674355618e-10
-1.160472267e-09
7.364541841e-10
4.608603912e-10
-3.968791831e-10
-3.605314893e-10
5.052699417e-11
1.374732685e-10
-4.48339071e-11
-4.406737273e-11
4.457010977e-12
1.090870617e-11
-4.077756165e-12
-1.949193389e-12
4.222630449e-13
7.662549357e-13
-3.941510294e-13
-7.152683603e-13
5.782597596e-13
7.167304541e-13
-6.377926827e-13
-6.435035948e-13
4.322634244e-13
2.094486285e-13
-1.019222364e-12
4.114954171e-13
7.725701072e-12
-3.803264993e-13
-2.031918959e-12
-6.563647371e-13
1.332924336e-11
8.238766824e-13
-1.297859192e-11
2.975065681e-12
1.036512289e-10
-1.356362924e-11
-2.01157087e-10
1.299330277e-10
1.092171498e-09
-4.789789193e-10
-1.864319132e-09
1.261596061e-09
4.948157415e-09
-2.715684662e-09
-7.097905013e-09
4.991505356e-09
1.257144044e-08
-8.065965484e-09
-1.643201093e-08
1.181155687e-08
2.260342884e-08
-1.603496399e-08
-2.773196136e-08
2.049336031e-08
3.263453494e-08
-2.490911392e-08
-3.762307085e-08
2.899835686e-08
4.113580243e-08
-3.262508103e-08
-4.503121225e-08
3.588109102e-08
4.945380867e-08
-3.884975976e-08
-5.267996466e-08
4.127528919e-08
5.410361239e-08
-4.24889303e-08
-5.496555265e-08
4.169687747e-08
5.015590864e-08
-3.888287245e-08
-4.737881898e-08
3.518789568e-08
4.391507267e-08
-3.172833422e-08
-3.940162989e-08
2.835665942e-08
3.170883313e-08
-2.430881441e-08
-2.524917149e-08
1.942562036e-08
1.675434264e-08
-1.434734727e-08
-1.107361048e-08
9.846907222e-09
6.877187992e-09
-6.322331596e-09
-3.696218153e-09
3.811877023e-09
2.199499661e-09
-2.171587284e-09
-9.516034702e-10
1.168399149e-09
3.744324456e-10
-6.34183215e-10
-1.247312667e-10
4.18572764e-10
8.035952088e-11
-3.186203355e-10
-2.670666821e-12
2.57181022e-10
4.921473471e-11
-2.146426712e-10
-5.223676759e-12
1.883216204e-10
5.351329273e-11
-1.992854847e-10
-5.079808699e-11
2.308353484e-10
1.592571789e-12
-1.933485184e-10
5.038605442e-11
1.61436852e-10
-5.80446873e-14
4.864498889e-11
1.563750955e-10
-1.433595166e-10
2.804147807e-10
-2.350240877e-09
1.072668976e-09
3.434801405e-10
-3.12579294e-10
-5.663543348e-10
4.146824117e-11
2.425356639e-10
-5.101854433e-11
-8.339556427e-11
2.312841855e-12
2.655864615e-11
2.03620371e-12
-8.11014982e-12
1.890024371e-13
2.877731742e-12
5.712114024e-13
-1.992247022e-12
5.271547128e-13
2.256665631e-12
9.876636508e-14
-2.795768156e-12
1.810182387e-12
3.359605803e-12
-1.164782306e-12
-3.919439789e-12
3.020774019e-12
4.743163961e-12
-1.98826047e-12
-5.73318753e-12
1.405313285e-11
6.216699094e-12
-1.631189398e-11
-4.135645009e-12
4.147736921e-10
-9.640727759e-11
-8.193978483e-10
5.145430981e-10
3.048847043e-09
-1.487072681e-09
-4.782302826e-09
3.256252019e-09
9.966432443e-09
-5.991797198e-09
-1.361363879e-08
9.724164844e-09
2.094207774e-08
-1.430685346e-08
-2.598184297e-08
1.943132318e-08
3.289591023e-08
-2.468158233e-08
-3.782100449e-08
2.960603275e-08
4.184373117e-08
-3.378753569e-08
-4.50069967e-08
3.691562873e-08
4.802399081e-08
-3.914101219e-08
-5.001307679e-08
4.103729692e-08
5.522808661e-08
-4.273342095e-08
-5.666797091e-08
4.33309377e-08
5.433344851e-08
-4.157594506e-08
-5.148511611e-08
3.693826772e-08
4.309711299e-08
-3.069013587e-08
-3.737784888e-08
2.525522685e-08
3.39540944e-08
-2.143409751e-08
-2.783037433e-08
1.786277672e-08
1.852950597e-08
-1.358777999e-08
-1.21580459e-08
9.097607212e-09
6.323246244e-09
-5.366412236e-09
-2.895757255e-09
2.866125527e-09
1.638110532e-09
-1.405667922e-09
-5.793655486e-10
6.548607825e-10
3.759993828e-10
-3.262304266e-10
-1.955850329e-10
2.266500929e-10
2.028584078e-11
-2.320179553e-10
-1.177454715e-12
2.653300937e-10
-5.819785481e-11
-3.237054052e-10
9.557861252e-11
3.854319673e-10
-5.196393805e-11
-5.059485717e-10
1.904101866e-10
7.881044081e-10
-2.153262391e-11
-1.311958989e-09
2.850688849e-10
1.89537573e-09
-1.129988724e-10
-2.400327232e-09
1.914435105e-10
2.826194021e-09
-2.413247652e-10
-2.459337843e-10
3.924892662e-09
-3.273634652e-09
1.345497727e-09
2.604733833e-10
-2.155907987e-10
-9.737872851e-10
9.626810118e-11
6.346238515e-10
-1.465323894e-10
-3.653411248e-10
2.59161703e-12
1.722590306e-10
-5.705613553e-11
-5.39523437e-11
-2.297028821e-12
1.408986322e-11
1.002600311e-12
-1.064254387e-11
-2.886537949e-12
9.273285206e-12
2.749220482e-12
-8.711571325e-12
-2.047597914e-12
8.844278874e-12
2.841301879e-12
-9.2976126e-12
-5.557036323e-12
1.011996716e-11
6.962018249e-12
-1.127087452e-11
-3.440015145e-11
1.128279112e-11
2.193332386e-11
1.378789814e-12
1.56329549e-09
-5.419589642e-10
-2.761712088e-09
1.763050391e-09
7.208051499e-09
-3.934232405e-09
-1.044759726e-08
7.240819181e-09
1.805313247e-08
-1.167254128e-08
-2.323863801e-08
1.699093094e-08
3.137195905e-08
-2.276359015e-08
-3.685981398e-08
2.844768391e-08
4.227077111e-08
-3.349264605e-08
-4.596582174e-08
3.742324356e-08
4.698948706e-08
-3.991276192e-08
-4.769211884e-08
4.086928238e-08
5.110890178e-08
-4.110364114e-08
-5.143210324e-08
4.182951732e-08
5.648443145e-08
-4.233020588e-08
-5.395267912e-08
3.988645171e-08
4.600910574e-08