/*--------------------------------*- C++ -*----------------------------------*\
| =========                 |                                                 |
| \\      /  F ield         | OpenFOAM: The Open Source CFD Toolbox           |
|  \\    /   O peration     | Version:  2.1.x                                 |
|   \\  /    A nd           | Web:      www.OpenFOAM.org                      |
|    \\/     M anipulation  |                                                 |
\*---------------------------------------------------------------------------*/
FoamFile
{
    version     2.0;
    format      ascii;
    class       volVectorField;
    location    "1";
    object      Uf;
}
// * * * * * * * * * * * * * * * * * * * * * * * * * * * * * * * * * * * * * //

dimensions      [0 1 -1 0 0 0 0];

internalField   nonuniform List<vector> 
2828
(
(-0.4970689645 0 -0.04514979876)
(-0.4586063215 0 0.06644818416)
(-0.4113449664 0 0.1422786228)
(-0.4921091539 0 0.2091029117)
(-0.5487146822 0 0.2633257394)
(-0.4324251897 0 -0.07245000519)
(-0.4383435812 0 -0.05034740181)
(-0.598889727 0 -0.03556858235)
(-0.5774568078 0 0.09155854859)
(-0.5162084424 0 -0.06564470265)
(-0.4077984094 0 0.0850277658)
(-0.4255548477 0 0.170174386)
(-0.5153777428 0 0.2401392767)
(-0.5794744854 0 0.3007450721)
(-0.6544772488 0 0.374264696)
(-0.7594775901 0 0.4793535491)
(-0.9009568968 0 0.6105127328)
(-0.4938315687 0 -0.159917423)
(-0.5004868522 0 -0.1426576646)
(-0.4511718925 0 -0.06407954321)
(-0.4690026013 0 -0.03346871815)
(-0.5547953921 0 -0.01701409815)
(-0.5169217158 0 0.07279854214)
(-0.5312243479 0 -0.06354872773)
(-0.3678905363 0 0.1122659805)
(-0.4563264117 0 0.196490165)
(-0.5474428517 0 0.2677914856)
(-0.6189960854 0 0.3361988755)
(-0.7172576063 0 0.4251696674)
(-0.8412641468 0 0.5404790181)
(-1.09030509 0 0.7309307649)
(-1.159070403 0 0.8512207597)
(-1.239792636 0 0.9707432339)
(-0.6614672622 0 -0.3133006786)
(-0.5272674011 0 -0.1701790237)
(-0.4806564148 0 -0.131485609)
(-0.4750086267 0 -0.05588498426)
(-0.4778222827 0 0.001241544467)
(-0.507684526 0 -0.007502492628)
(-0.4478724856 0 0.03736345699)
(-0.5180093014 0 -0.03630846828)
(-0.3694271913 0 0.1377166883)
(-0.4799804162 0 0.214877077)
(-0.5636232802 0 0.2844740434)
(-0.6378555314 0 0.3573323482)
(-0.7476207194 0 0.4574615431)
(-0.8883481393 0 0.5860727845)
(-1.798261023 0 1.096286538)
(-1.622557272 0 1.184791397)
(-1.441092339 0 1.165321815)
(-1.463703985 0 1.226214632)
(-1.549745758 0 1.320274322)
(-0.8230540568 0 -0.5330549876)
(-0.7817996925 0 -0.398474752)
(-0.6275978847 0 -0.2260625934)
(-0.4606435342 0 -0.1244173562)
(-0.4711889018 0 -0.05196303053)
(-0.4618556325 0 0.0303857054)
(-0.4548613105 0 -0.005338414991)
(-0.3881908387 0 0.003376811463)
(-0.4185753681 0 0.04385447024)
(-0.3865612824 0 0.154060653)
(-0.4849873254 0 0.2238519211)
(-0.555191143 0 0.2911746337)
(-0.6394600864 0 0.3814001746)
(-0.7903527388 0 0.534025528)
(-1.071203641 0 0.6675423274)
(-2.315186679 0 1.382790504)
(-2.107021039 0 1.571814813)
(-1.735861064 0 1.444330425)
(-1.644148131 0 1.406155449)
(-1.665911421 0 1.436119871)
(-1.669347128 0 1.445603703)
(-0.8268944497 0 -0.6797810982)
(-0.8694535482 0 -0.6051685217)
(-0.814557743 0 -0.434733831)
(-0.6764176359 0 -0.2520624312)
(-0.4621125062 0 -0.1117827101)
(-0.4451774047 0 -0.04561906234)
(-0.4282637665 0 0.04152397858)
(-0.3945567516 0 -0.01586061425)
(-0.3452641353 0 0.01543096928)
(-0.327991324 0 0.08746941314)
(-0.4005456355 0 0.1673840786)
(-0.4770202473 0 0.2327594966)
(-0.5481318703 0 0.3181132188)
(-0.6997905706 0 0.4814735594)
(-0.9466549512 0 0.7150327474)
(-1.33311499 0 0.7582443336)
(-2.055540921 0 1.383373596)
(-2.074561341 0 1.710618056)
(-1.851774051 0 1.607358576)
(-1.776169257 0 1.541585075)
(-1.773800875 0 1.541032877)
(-1.742704553 0 1.515442496)
(-1.684012127 0 1.465628482)
(-0.7412166103 0 -0.7305377768)
(-0.8191307666 0 -0.7558493128)
(-0.8139572212 0 -0.6385924288)
(-0.7656934065 0 -0.4416493414)
(-0.6681146071 0 -0.2427043849)
(-0.5100048526 0 -0.08626845292)
(-0.4053862666 0 -0.03743060147)
(-0.3835640236 0 0.03634852394)
(-1.499557747 0 -0.1520279629)
(-0.3176602348 0 0.04523050615)
(-0.3386696125 0 0.1137864562)
(-0.4171745616 0 0.1917044727)
(-0.4896608193 0 0.2725728348)
(-0.6067592599 0 0.4132496072)
(-0.8524821741 0 0.6422851449)
(-1.137416729 0 0.8857718205)
(-1.412464219 0 1.025626124)
(-1.593375389 0 1.330065526)
(-1.747248724 0 1.532747971)
(-1.80901086 0 1.577663357)
(-1.842686638 0 1.605053632)
(-1.840576905 0 1.607028934)
(-1.788635048 0 1.561268777)
(-1.695437128 0 1.479577797)
(-0.6668625551 0 -0.7541755221)
(-0.7155121783 0 -0.7969427814)
(-0.7390765028 0 -0.7873261293)
(-0.6942194744 0 -0.6514864605)
(-0.7119332013 0 -0.4910048313)
(-0.6753107222 0 -0.2546556891)
(-0.5630432284 0 -0.03972080172)
(-0.3584237999 0 -0.03128501328)
(-0.4578205377 0 -0.05251626612)
(-4.335288461 0 -0.5299600457)
(-0.3191530939 0 0.07630887056)
(-0.3540061799 0 0.1443481567)
(-0.4486927314 0 0.2404633293)
(-0.5410454128 0 0.3550558314)
(-0.7243291822 0 0.5421008306)
(-1.026344308 0 0.7930301892)
(-1.302060188 0 1.024590227)
(-1.511765268 0 1.218415676)
(-1.664264736 0 1.379686966)
(-1.770542558 0 1.503494398)
(-1.839946856 0 1.591959599)
(-1.872270591 0 1.638060997)
(-1.8569383 0 1.629068313)
(-1.788884599 0 1.56690867)
(-1.676799106 0 1.467601093)
(-1.53728236 0 1.355907286)
(-0.6393748115 0 -0.7980104835)
(-0.6536422586 0 -0.820867177)
(-0.627380658 0 -0.767372047)
(-0.5829044139 0 -0.6658725401)
(-0.6862232648 0 -0.6288197463)
(-0.8136399987 0 -0.4092070283)
(-0.5913854378 0 0.03993485536)
(-0.3158878913 0 -0.03777070727)
(-0.3240614562 0 -0.01314753105)
(-0.887970235 0 -0.2678491572)
(-0.2838900754 0 0.09242267724)
(-0.3846464028 0 0.2066827035)
(-0.4867193215 0 0.3124697209)
(-0.6125304828 0 0.4574123239)
(-0.9096634065 0 0.7123422939)
(-1.25380558 0 0.9894846603)
(-1.494496198 0 1.203241938)
(-1.6429512 0 1.356408119)
(-1.738101503 0 1.468070911)
(-1.800880629 0 1.550062564)
(-1.839020894 0 1.606149879)
(-1.850521577 0 1.629121572)
(-1.820677372 0 1.603251225)
(-1.741269297 0 1.529627722)
(-1.617933939 0 1.423396786)
(-1.463954941 0 1.308335367)
(-1.316282944 0 1.214902309)
(-0.5593084672 0 -0.7759884351)
(-0.5742726104 0 -0.8133236301)
(-0.5644065479 0 -0.7921841504)
(-0.5196166433 0 -0.7115730942)
(-0.5001441426 0 -0.6687173892)
(-0.5776439589 0 -0.7363211885)
(-0.804140423 0 -0.7072917061)
(-0.8222270049 0 0.2227482874)
(-0.2927596985 0 -0.0792374301)
(-0.3289724906 0 -0.05466764388)
(-0.3262206697 0 0.0584220987)
(-0.3377086616 0 0.1710777515)
(-0.4316010133 0 0.2745103917)
(-0.5315820915 0 0.390616456)
(-0.8184883906 0 0.6374766557)
(-1.208064703 0 0.9548730449)
(-1.534386518 0 1.228072731)
(-1.725278369 0 1.41931859)
(-1.80900317 0 1.528291967)
(-1.832999501 0 1.576455179)
(-1.830935559 0 1.592243695)
(-1.81738435 0 1.594202936)
(-1.792967111 0 1.580514026)
(-1.741793293 0 1.533773563)
(-1.649460572 0 1.450176802)
(-1.514465888 0 1.34035445)
(-1.347234457 0 1.231136303)
(-1.191061347 0 1.149571967)
(-0.4613839457 0 -0.7071994391)
(-0.4750389398 0 -0.7537110782)
(-0.4547442945 0 -0.7164537909)
(-0.4368956031 0 -0.6644198088)
(-0.4659531964 0 -0.6776325233)
(-0.6061043167 0 -0.6974652053)
(-1.080483944 0 -0.6097206887)
(-0.9845065601 0 -0.8687444207)
(-0.3158773165 0 -0.1388548972)
(-0.3341388277 0 -0.07488124136)
(-0.3863489706 0 0.125119315)
(-0.4277605796 0 0.2344764811)
(-0.4836039916 0 0.332819489)
(-0.6978564032 0 0.5652286551)
(-1.979058471 0 1.125417454)
(-1.709805434 0 1.286396583)
(-1.773615501 0 1.432218125)
(-1.905908552 0 1.592781146)
(-1.94736875 0 1.67173737)
(-1.921077499 0 1.669719797)
(-1.859735607 0 1.620914447)
(-1.786575126 0 1.560230221)
(-1.713937294 0 1.500215142)
(-1.632066983 0 1.427633438)
(-1.520339581 0 1.332128531)
(-1.367354029 0 1.218529654)
(-1.18438738 0 1.120951716)
(-1.040496778 0 1.075161938)
(-0.3328117157 0 -0.5747577529)
(-0.3589063146 0 -0.6362767141)
(-0.3484261836 0 -0.6260617861)
(-0.3504634108 0 -0.6234871107)
(-0.447062026 0 -0.6803789763)
(-1.006095688 0 -0.5525532192)
(-1.555836013 0 -0.4372424646)
(-1.650260811 0 -1.712944215)
(-0.3198742963 0 -0.1878439016)
(-0.4466537839 0 0.01233110417)
(-0.5133056493 0 0.2058123644)
(-0.4895750188 0 0.291086677)
(-0.7347511811 0 0.5668418464)
(-1.156479866 0 0.9413381142)
(-3.203675167 0 1.498452537)
(-2.556132844 0 1.863948122)
(-2.018450349 0 1.681967096)
(-2.001736822 0 1.708534756)
(-2.010604435 0 1.748606847)
(-1.954268192 0 1.70501241)
(-1.85082662 0 1.603540907)
(-1.728860812 0 1.489429375)
(-1.611661723 0 1.387410472)
(-1.496645961 0 1.289032676)
(-1.359313208 0 1.179564326)
(-1.180874857 0 1.062552017)
(-0.983894117 0 0.9834845357)
(-0.8655397888 0 0.9773471802)
(-0.7944104354 0 0.9535243127)
(-0.1794972847 0 -0.385417451)
(-0.2518178252 0 -0.5165255764)
(-0.2547591843 0 -0.5214973513)
(-0.2324503136 0 -0.4799591241)
(-0.3336559155 0 -0.4622238019)
(-1.017719788 0 -0.4006041624)
(-1.606311027 0 -0.3907108483)
(-1.635956077 0 -2.216254668)
(-0.655061712 0 -0.4711287925)
(-0.7616042321 0 0.2201648672)
(-0.5951044757 0 0.2861092799)
(-0.6890056355 0 0.4921279634)
(-1.261308558 0 0.9427378856)
(-1.628690592 0 1.269858375)
(-2.914187712 0 1.503122099)
(-2.675962211 0 2.35079115)
(-2.187292009 0 1.974330507)
(-2.058306695 0 1.792180333)
(-2.016641445 0 1.758854858)
(-1.923935916 0 1.664716349)
(-1.783818692 0 1.518762811)
(-1.627225319 0 1.368558074)
(-1.478831382 0 1.239010154)
(-1.335495794 0 1.120212693)
(-1.170343131 0 0.9978951141)
(-0.9661806427 0 0.8848616075)
(-0.7704209224 0 0.8349197579)
(-0.6831487153 0 0.8599748552)
(-0.651079672 0 0.8959650099)
(-0.1074851332 0 -0.1852087698)
(-0.05730917739 0 -0.2443367118)
(-0.01103119456 0 -0.3228809038)
(0.2005046336 0 -0.3748193574)
(-0.09763573242 0 -0.2503178737)
(-0.221348949 0 -0.2497679082)
(-0.9278465585 0 -0.355483546)
(-1.495406144 0 -0.3646813841)
(-0.230635094 0 -0.7330691777)
(-0.2524294919 0 -0.1430453029)
(-0.9901653052 0 0.3756887886)
(-0.56117274 0 0.3383750311)
(-1.098489603 0 0.7775874272)
(-1.592979671 0 1.161151576)
(-1.903818111 0 1.46894319)
(-1.720479739 0 1.710367574)
(-2.002523432 0 1.809962827)
(-2.134639882 0 1.84134452)
(-2.09977375 0 1.814169782)
(-1.998716525 0 1.718002724)
(-1.844053383 0 1.556491067)
(-1.661803438 0 1.370418865)
(-1.48101888 0 1.201034801)
(-1.313368957 0 1.057810805)
(-1.147789553 0 0.9249193117)
(-0.9583782208 0 0.7963500357)
(-0.7416370601 0 0.7041922759)
(-0.5730102999 0 0.6959768026)
(-0.5329421569 0 0.7740453666)
(-0.5383555733 0 0.905096908)
(-0.1366560672 0 -0.1641164579)
(-0.05372357724 0 -0.2064979867)
(0.009949380599 0 -0.2140279477)
(0.04543025321 0 -0.2298611385)
(-0.04495010137 0 -0.2640338727)
(-0.2530104684 0 -0.2199018427)
(-0.8394676157 0 -0.3396973004)
(-1.261990499 0 -0.325069466)
(-0.1565947728 0 -0.07060368891)
(0.1423720718 0 -0.3442939075)
(-0.6180513329 0 0.2558021499)
(-0.646767527 0 0.5038209138)
(-1.295539998 0 0.9534802997)
(-1.721822488 0 1.310087015)
(-2.01113036 0 1.605943143)
(-2.179061535 0 1.812739377)
(-2.241155723 0 1.91122303)
(-2.216140615 0 1.902362802)
(-2.114202681 0 1.799426432)
(-1.934414341 0 1.614087381)
(-1.709667051 0 1.384522702)
(-1.492106275 0 1.173265441)
(-1.297837805 0 1.000090866)
(-1.116913838 0 0.8511349293)
(-0.9318715502 0 0.7099292701)
(-0.7263675743 0 0.5896200771)
(-0.51878321 0 0.5512393275)
(-0.4202010935 0 0.6415205139)
(-0.7047978351 0 1.309346552)
(-0.682804069 0 1.547184437)
(-0.1533481893 0 -0.1328323949)
(-0.1214996325 0 -0.1615530824)
(-0.08857684474 0 -0.1893466756)
(-0.1694035769 0 -0.3266780489)
(-0.4004003049 0 -0.4390494763)
(-0.5731733649 0 -0.3067829807)
(-0.7349464827 0 -0.2861131345)
(-1.228989681 0 -0.3497432834)
(-0.4140362221 0 0.1102894906)
(0.04148428191 0 0.04778995967)
(-0.4751805085 0 0.3328973505)
(-0.9613426809 0 0.797482106)
(-1.479105424 0 1.198671337)
(-1.859576544 0 1.529522986)
(-2.10960463 0 1.773132958)
(-2.245372601 0 1.921584458)
(-2.278753707 0 1.961454237)
(-2.212939908 0 1.873729352)
(-2.045788462 0 1.680742959)
(-1.783066252 0 1.410618078)
(-1.508952951 0 1.144804185)
(-1.280367603 0 0.9393407273)
(-1.083890676 0 0.7768907615)
(-0.888883191 0 0.626125911)
(-0.6820354706 0 0.4904631)
(-0.4773916635 0 0.4647813252)
(-0.3530914562 0 0.6782447508)
(-0.3437442225 0 0.8907886793)
(-1.108552554 0 3.154301875)
(-0.7801965778 0 3.012952715)
(-0.1115336127 0 -0.1345058847)
(-0.091273782 0 -0.1628506323)
(-0.06058438341 0 -0.1796338553)
(-0.0701636416 0 -0.2281288379)
(-0.1918703551 0 -0.6234549566)
(-0.57630106 0 -0.7517972776)
(-0.2027991393 0 0.2693441249)
(-0.1971956312 0 0.1692455911)
(-0.2601818346 0 0.1158717385)
(-0.3291822887 0 0.2812372232)
(-0.7812027445 0 0.6721504437)
(-1.334572229 0 1.144745796)
(-1.789277466 0 1.527040181)
(-2.100965539 0 1.798586189)
(-2.27812957 0 1.961831801)
(-2.343408186 0 2.028275661)
(-2.300985646 0 1.963846306)
(-2.149636442 0 1.74479408)
(-1.884647588 0 1.439763779)
(-1.541020677 0 1.107280804)
(-1.252601551 0 0.85487462)
(-1.036053951 0 0.6823532584)
(-0.8397688099 0 0.537441484)
(-0.6241183591 0 0.3906687701)
(-0.3897656878 0 0.374824711)
(-0.2639135688 0 0.9740670318)
(-0.1640518342 0 0.9282272964)
(-0.1424498963 0 0.7138438871)
(0.6686256208 0 1.569719195)
(0.4736139344 0 1.270020431)
(-0.06041069086 0 -0.1808301957)
(-0.05976830978 0 -0.1917257806)
(-0.02427687781 0 -0.193346654)
(0.01395366781 0 -0.2079392441)
(0.01470548504 0 -0.266628362)
(-0.0965891136 0 -0.3921446128)
(-0.2523388782 0 -0.4750220932)
(-0.4488958222 0 -0.5782365562)
(-1.667532761 0 -0.4416899785)
(-0.6177121244 0 0.5438246172)
(-1.219072972 0 1.052805037)
(-1.76532922 0 1.523317327)
(-2.146117472 0 1.852158471)
(-2.366419789 0 2.044656361)
(-2.454251827 0 2.125503447)
(-2.430796311 0 2.102817873)
(-2.274979232 0 1.884188058)
(-2.00818145 0 1.498134379)
(-1.623933127 0 1.087636015)
(-1.231754458 0 0.7491654757)
(-0.9582947889 0 0.5432333003)
(-0.76126021 0 0.4091144795)
(-0.5513249031 0 0.2810004421)
(-0.3569912751 0 0.1897345697)
(0.03570185075 0 0.4401358712)
(0.1636059036 0 0.5091187847)
(0.1313907099 0 0.5100494189)
(0.08220251327 0 0.5098507671)
(0.0948118619 0 0.5637443922)
(0.1127254683 0 0.6248617396)
(-0.04023808931 0 -0.2257525803)
(-0.0368995499 0 -0.2066619408)
(-0.02263710181 0 -0.1885538878)
(0.05512307098 0 -0.3081944862)
(0.156400353 0 -0.5147374161)
(0.1641053218 0 -0.5697786584)
(0.5065986525 0 -0.8693661482)
(1.407852469 0 -0.4639860319)
(-1.056826969 0 0.9132319527)
(-1.718853397 0 1.483258075)
(-2.198308309 0 1.897761088)
(-2.475705499 0 2.139341114)
(-2.592749427 0 2.243438962)
(-2.58501061 0 2.241897888)
(-2.449281044 0 2.102139946)
(-2.15382161 0 1.678565036)
(-1.759711591 0 1.127040642)
(-1.270495466 0 0.6773156645)
(-0.8889342235 0 0.394832977)
(-0.6124300261 0 0.1891942203)
(-0.4092666253 0 0.08034718066)
(-0.2836676464 0 0.07911963831)
(-0.2379996737 0 0.1384531085)
(-0.1842420438 0 0.1874497195)
(-0.1272572087 0 0.2292434735)
(-0.05710286882 0 0.2830840858)
(-0.0692563821 0 0.2717372393)
(-0.07797067819 0 0.2869687612)
(-0.06923682666 0 0.3010624958)
(0.03131067192 0 -0.2100151704)
(0.01884825226 0 -0.1820080812)
(0.002815685757 0 -0.1582995878)
(-0.01468638141 0 -0.1274042474)
(-0.01126560203 0 -0.1122804442)
(0.2066634433 0 -0.3047973198)
(0.5389908807 0 -0.40289897)
(-0.7775527718 0 0.6774734414)
(-1.588751228 0 1.371115693)
(-2.23121347 0 1.925239294)
(-2.590511794 0 2.237444046)
(-2.746447063 0 2.375344123)
(-2.754546345 0 2.385936674)
(-2.646781098 0 2.298805762)
(-2.35040872 0 1.969303829)
(-1.932371079 0 1.354223694)
(-1.36966863 0 0.6511806675)
(-0.8985214216 0 0.3344807416)
(-0.5152285122 0 0.04041568509)
(-0.3845442762 0 -0.1660610456)
(-0.2192533232 0 -0.1088848836)
(-0.2177175049 0 0.05896892877)
(-0.2010892719 0 0.1494510524)
(-0.1659083976 0 0.2267183847)
(-0.1170131441 0 0.2706080845)
(-0.07465456481 0 0.2830644082)
(-0.04668654189 0 0.2888450543)
(-0.0323576164 0 0.2981423431)
(-0.01702794591 0 0.2938567514)
(0.03870993464 0 -0.1914879822)
(0.007613847734 0 -0.1240111182)
(-0.02145975895 0 -0.06570506144)
(-0.01016642132 0 -0.06397448874)
(-0.01668894328 0 -0.04857318249)
(-0.004041128125 0 -0.02648848009)
(-0.3683809436 0 0.3352729195)
(-1.369447401 0 1.181202637)
(-2.228103984 0 1.921345492)
(-2.704992873 0 2.334886141)
(-2.913544417 0 2.518571382)
(-2.942797521 0 2.548012711)
(-2.838884592 0 2.461922602)
(-2.625000721 0 2.283625864)
(-2.07488 0 1.625541498)
(-1.632960153 0 0.961388362)
(-0.8666718141 0 0.2456558305)
(-0.5902576458 0 0.1168313252)
(-0.3644249504 0 -0.1439886451)
(-0.4464416035 0 -0.114488151)
(-0.2230169397 0 -0.2083495401)
(-0.1563618964 0 0.03300584657)
(-0.1630406475 0 0.1743819085)
(0.02836568143 0 0.3138050359)
(0.1084497104 0 0.3639667864)
(0.06542233593 0 0.2646977511)
(0.04295816682 0 0.2072276284)
(0.04780140788 0 0.1950010859)
(-0.08075649637 0 -0.0405516452)
(-0.08436296985 0 0.01424531626)
(-0.04215252933 0 0.02049145395)
(0.03211199176 0 -0.006318688174)
(-0.008915236991 0 0.06341837586)
(-0.8642080397 0 0.7471712661)
(-2.121799084 0 1.828678301)
(-2.806147153 0 2.420379236)
(-3.092714087 0 2.671713097)
(-3.150467285 0 2.726600504)
(-3.053056604 0 2.646932245)
(-2.830955277 0 2.458006011)
(-2.499990008 0 2.179010014)
(-1.551050595 0 1.002966651)
(-1.093509059 0 0.2278478041)
(-0.5295202052 0 0.2332413982)
(-0.3971973855 0 -0.1818539086)
(-0.4157084834 0 -0.2117773229)
(-0.3922965733 0 -0.1274818319)
(-0.3405300507 0 -0.3266385795)
(-0.1019293825 0 -0.1304984859)
(0.3167463508 0 -0.05751109342)
(0.531370684 0 0.2214508745)
(0.3610422699 0 0.2109020889)
(0.1495411333 0 0.1308207027)
(0.0945016695 0 0.1252235102)
(0.01422849101 0 0.9389166882)
(-0.09911907888 0 -0.07195744132)
(-0.1593546734 0 0.08606884305)
(-0.1177501586 0 0.06201556972)
(-0.101113711 0 0.06349466187)
(-0.2263741847 0 0.2103335949)
(-1.709234682 0 1.474530571)
(-2.859854103 0 2.464481223)
(-3.280458396 0 2.831471425)
(-3.378083132 0 2.921908662)
(-3.291105843 0 2.852498961)
(-3.061899831 0 2.658230997)
(-2.706706418 0 2.352699888)
(-2.240575072 0 1.956806713)
(-0.7163009317 0 0.1321586988)
(-0.2041739854 0 -0.8204186593)
(-0.5422012893 0 0.1636960076)
(-0.07367875778 0 0.02874900689)
(-0.4375930899 0 -0.2786056805)
(-0.4640307052 0 -0.3934109855)
(-0.4992183078 0 -0.4370645813)
(-0.2840361918 0 -0.2772011304)
(0.2604148654 0 -0.0325275732)
(0.5892414813 0 0.1563096159)
(0.4009047718 0 0.1364479864)
(0.2073241574 0 0.09849821636)
(0.1336833244 0 0.1898615409)
(-0.1707483511 0 0.1964942371)
(-0.1035178813 0 0.1220959826)
(-0.1265731929 0 0.1247643285)
(-0.1790851088 0 0.2066039957)
(-2.712125561 0 2.335834036)
(-3.464619615 0 2.986854408)
(-3.623692438 0 3.131879815)
(-3.55281646 0 3.078292299)
(-3.320756736 0 2.882843129)
(-2.939843859 0 2.555514208)
(-2.424545764 0 2.109365003)
(-1.793466587 0 1.558974658)
(-1.046687948 0 0.9765449562)
(-0.03929984753 0 -0.09107729365)
(-0.9811175553 0 -0.1026023475)
(-0.01538063328 0 0.2340831802)
(-0.603728588 0 -0.5501570412)
(-0.6544090083 0 -0.5688571249)
(-0.6498626788 0 -0.558182166)
(-0.5461291191 0 -0.4660205372)
(-0.1592532283 0 -0.1734730174)
(0.5429633975 0 0.1312402808)
(0.3797565277 0 0.110433407)
(0.2434155375 0 0.08942960044)
(0.1117718102 0 0.1033687167)
(-0.1490256652 0 -0.1109766867)
(-0.170694124 0 0.19115151)
(-0.2119274177 0 0.2063783578)
(-0.1805655017 0 0.2241926144)
(-3.598516498 0 3.096767357)
(-3.880600873 0 3.349793514)
(-3.832604747 0 3.319256336)
(-3.606685723 0 3.131222532)
(-3.203780944 0 2.785591851)
(-2.625942931 0 2.285047688)
(-1.920844267 0 1.672661442)
(-1.060891954 0 0.8479316808)
(-0.2551449831 0 -0.1515800849)
(0.4274496635 0 -0.2992859055)
(-1.303718694 0 0.08311364984)
(-0.7551963598 0 0.2963115165)
(-0.5989279329 0 -0.5044858847)
(-0.6991861748 0 -0.618783452)
(-0.7650496226 0 -0.6647114193)
(-0.7552657866 0 -0.6449717945)
(-0.5421071447 0 -0.4595795597)
(0.5203369848 0 0.1194662233)
(0.3611292618 0 0.09846142709)
(0.257351802 0 0.08665277344)
(0.1345386181 0 -0.0594949737)
(-0.294809205 0 0.2936276655)
(-0.2127532702 0 0.2786928589)
(-4.134778559 0 3.560612789)
(-4.113905759 0 3.56034507)
(-3.910537116 0 3.395762791)
(-3.499341132 0 3.044097462)
(-2.845004212 0 2.476879973)
(-2.007563489 0 1.748474073)
(-1.158830828 0 1.012674183)
(-0.34192024 0 -0.6110676939)
(-0.3468147227 0 -1.168812137)
(0.1018178955 0 -0.7028891533)
(-0.6781550436 0 0.02216657359)
(-0.6930491001 0 0.6833325732)
(-0.56173262 0 -0.276969159)
(-0.7033023171 0 -0.630322715)
(-0.8369752958 0 -0.7384425047)
(-0.9111105772 0 -0.786910295)
(-0.87790722 0 -0.7392202306)
(0.5050755758 0 0.1093049739)
(0.3425289081 0 0.08726229975)
(0.1879386729 0 0.133633344)
(-0.07808519972 0 0.492562193)
(-4.361284073 0 3.76777202)
(-4.204686806 0 3.653465489)
(-3.820241438 0 3.326821613)
(-3.067203572 0 2.672954723)
(-2.009780003 0 1.751886457)
(-1.021529246 0 0.8921273327)
(-0.4436690189 0 0.4092944468)
(0.006551176485 0 -0.1637479967)
(-0.01843937298 0 -0.1638435197)
(-0.0009356770852 0 -0.2317518122)
(0.3899595891 0 -0.1679928617)
(-0.1592280002 0 -0.2003822055)
(-0.378452047 0 -0.3470822904)
(-0.6269327947 0 -0.567004059)
(-0.8510319136 0 -0.7640452218)
(-1.000191648 0 -0.8814063567)
(-1.078513567 0 -0.9135236005)
(0.4720471474 0 0.0903728804)
(-4.420292885 0 3.855995055)
(-4.14082425 0 3.617401022)
(-3.206788195 0 2.801459219)
(-1.643681429 0 1.435569031)
(-0.7047745071 0 0.6310880667)
(-0.9223618156 0 -0.1526768822)
(0.1639216494 0 -0.2255081627)
(0.2514066492 0 -0.2798271048)
(0.5540061054 0 -0.498866273)
(1.251426719 0 -0.8100832016)
(1.072881031 0 -0.3913054493)
(0.04503603867 0 -0.1668284036)
(0.03755522269 0 -0.1697438211)
(-0.3475186449 0 -0.3222871486)
(-0.7358367256 0 -0.6740827548)
(-1.019000207 0 -0.9300725695)
(-1.135072797 0 -0.9975354006)
(-0.03921725344 0 -0.07978886825)
(0.07195591508 0 -0.02577665562)
(0.1433898236 0 -0.03197831854)
(0.2195689788 0 -0.04745087774)
(7.134986962 0 -0.2959223601)
(0.2745948709 0 -0.2792537593)
(0.4324029513 0 -0.3691515812)
(0.6987754718 0 -0.5079629668)
(1.197713848 0 -0.6448589302)
(1.094097461 0 -0.3883078051)
(0.9638464261 0 -0.3144260019)
(1.325003195 0 -0.1202564038)
(0.4059647195 0 -0.01034374977)
(0.2110867187 0 0.133183182)
(0.2444276745 0 -0.1133733176)
(0.3396931292 0 -0.1800870296)
(0.3607500598 0 -0.3002581825)
(0.5672554557 0 -0.4130861042)
(0.7671355904 0 -0.4803128697)
(1.089770495 0 -0.5313844067)
(1.232961094 0 -0.4363974188)
(0.8047713896 0 -0.219932581)
(1.17542798 0 -0.05461442942)
(-0.555961301 0 -0.06498020327)
(-0.6150857217 0 -0.05001718084)
(-0.6520500394 0 0.0898907164)
(-0.6077738216 0 0.09569930681)
(-0.5386019543 0 0.05448325678)
(-0.5228139497 0 0.03650945172)
(-0.50419634 0 -0.05720841349)
(-0.6102092468 0 -0.008356189124)
(-0.619176101 0 -0.01044064706)
(-0.4380786206 0 0.07461744512)
(-0.3897102592 0 0.1167809304)
(-0.4002638544 0 0.1055928686)
(-0.4145963487 0 0.1555133635)
(-0.4591787616 0 0.1916411726)
(-0.4510177515 0 0.1774330643)
(-0.5008919149 0 0.2239362118)
(-0.5343894946 0 0.253069196)
(-0.5250652802 0 0.2371999483)
(-0.5590332691 0 0.2774000107)
(-0.5870114177 0 0.3097173252)
(-0.6216289009 0 0.3473196931)
(-0.6695520893 0 0.3939302862)
(-0.7244756161 0 0.4486428282)
(-0.5019290656 0 -0.1427086664)
(-0.4852752152 0 -0.1145051138)
(-0.4365561586 0 -0.06967652219)
(-0.4214959834 0 -0.07095366661)
(-0.4222974917 0 -0.07216411242)
(-0.4610151153 0 -0.04540669371)
(-0.5264171003 0 -0.05690600781)
(-0.5380995487 0 -0.06580652665)
(-0.8076710679 0 0.5138680692)
(-0.8876189504 0 0.5827760977)
(-0.8288690052 0 0.5449646913)
(-0.9628409517 0 0.6539861267)
(-1.017286721 0 0.7197497646)
(-0.9679927993 0 0.6782066528)
(-1.076086545 0 0.786290559)
(-1.13341055 0 0.8528272966)
(-0.5289153291 0 -0.1946367124)
(-0.4971582645 0 -0.1586263959)
(-0.4874784107 0 -0.1456731743)
(-0.4962414082 0 -0.1566839451)
(-1.318930009 0 1.049428262)
(-1.351377911 0 1.098671501)
(-1.295474411 0 1.038073604)
(-1.401010328 0 1.159048374)
(-0.7815339813 0 -0.4899238215)
(-0.76364397 0 -0.4299201721)
(-0.7145534411 0 -0.3866838358)
(-0.7317029902 0 -0.3612943574)
(-0.6655037051 0 -0.2783114671)
(-0.5803389158 0 -0.2255212783)
(-1.557256532 0 1.319319751)
(-1.581946938 0 1.349169017)
(-1.508917527 0 1.275897078)
(-1.599709553 0 1.371877356)
(-1.620720897 0 1.395500276)
(-0.8095441991 0 -0.6376601735)
(-0.8411431523 0 -0.6170469642)
(-0.8118127053 0 -0.5742464487)
(-1.702875396 0 1.477983418)
(-1.690499604 0 1.468494997)
(-0.7476741763 0 -0.7037362925)
(-0.7909851936 0 -0.7191521765)
(-0.7844850931 0 -0.6794873067)
(-1.69015749 0 1.472518768)
(-1.651729614 0 1.441425344)
(-0.6964401089 0 -0.7412314641)
(-0.7288030865 0 -0.7640541064)
(-0.7670081295 0 -0.7874178232)
(-0.7873760564 0 -0.7605083881)
(-1.68991577 0 1.476310493)
(-1.622084162 0 1.419271451)
(-1.639302324 0 1.43115783)
(-1.564174121 0 1.374248774)
(-0.6566018493 0 -0.7747283628)
(-0.6712568091 0 -0.803413086)
(-0.689436898 0 -0.7726444291)
(-1.506460486 0 1.336886788)
(-1.431964414 0 1.284418492)
(-1.476953563 0 1.314106564)
(-0.6067731911 0 -0.7941900893)
(-0.6276704673 0 -0.7826387168)
(-1.25583074 0 1.182502109)
(-0.5152388672 0 -0.7539510114)
(-0.524940444 0 -0.7822448868)
(-0.5731200994 0 -0.7956589825)
(-1.120150317 0 1.116084311)
(-1.062297255 0 1.083962488)
(-1.13388231 0 1.118776238)
(-0.3665661241 0 -0.5949754784)
(-0.3942902422 0 -0.6400607777)
(-0.4137415393 0 -0.6878811513)
(-0.4715951628 0 -0.7443093883)
(-0.9557966916 0 1.029521157)
(-0.9119834116 0 1.010334248)
(-0.9871519294 0 1.046398029)
(-0.8702632332 0 0.9877604045)
(-0.2091914904 0 -0.4006031642)
(-0.2974799105 0 -0.5120563045)
(-0.7203517981 0 0.9197892942)
(-0.09786285324 0 -0.1945114826)
(-0.0852082845 0 -0.2089552973)
(-0.1355912797 0 -0.2938204723)
(-0.5873438292 0 0.8850309304)
(-0.5798533604 0 0.9121274066)
(-0.1197027904 0 -0.1781935989)
(-0.07762905098 0 -0.1888782304)
(-0.0680063626 0 -0.1950627176)
(-0.5587288656 0 1.081172221)
(-0.547027707 0 1.135111384)
(-0.5382873751 0 0.9646385697)
(-0.1529954202 0 -0.1374778293)
(-0.1339088073 0 -0.1367158197)
(-0.1052701914 0 -0.1771979414)
(-0.8082920769 0 2.246533425)
(-0.7144860533 0 2.166991519)
(-0.6336687288 0 1.549270455)
(-0.134970083 0 -0.1307217025)
(-0.1276079544 0 -0.1317506102)
(-0.1437818817 0 -0.1332190508)
(-0.5076663764 0 3.724850007)
(-0.4202328587 0 3.286359181)
(-0.6705185935 0 2.842220106)
(-0.0860610569 0 -0.1484671352)
(-0.08609317922 0 -0.1531683527)
(-0.1078060502 0 -0.1366150343)
(0.3097776161 0 0.8967727052)
(0.2987771842 0 0.8973894859)
(0.3712429099 0 1.125700786)
(-0.03603963667 0 -0.2184468088)
(-0.06440400221 0 -0.182595977)
(-0.06293860108 0 0.3095054015)
(0.125124614 0 0.6555347803)
(-0.01409848599 0 -0.2211455187)
(-0.03650013404 0 -0.2279073134)
(-0.04971658726 0 0.3037288748)
(0.01574032276 0 -0.2179950611)
(-0.04062887747 0 -0.1706075675)
(-0.05441658806 0 -0.1657899894)
(0.02859152902 0 -0.1957377323)
(0.01178379709 0 0.258192141)
(0.02211835965 0 0.2510938132)
(-0.0175465192 0 0.2917863966)
(0.05615686791 0 -0.1686924947)
(0.04904478602 0 -0.1488765448)
(0.02588709697 0 -0.1513548667)
(0.05496486201 0 0.1964372992)
(0.05684755635 0 0.1902489382)
(0.05405798339 0 0.1909589837)
(-0.1262418383 0 -0.03433658302)
(-0.1106978917 0 -0.02068326008)
(0.3739400558 0 1.415393291)
(-0.1524307636 0 -0.06071684309)
(-0.237974081 0 0.1408331578)
(-0.2161934732 0 0.0913982041)
(0.1143493857 0 0.1309480372)
(0.7512387987 0 1.56676569)
(0.6469137421 0 1.488595132)
(-0.2298708715 0 0.1995973641)
(0.05929938751 0 -0.07367331811)
(-0.1607582302 0 0.1383959487)
(-0.1215196509 0 0.1515866968)
(0.2543082591 0 0.08783205764)
(0.2025344185 0 0.09261057829)
(0.1652135872 0 0.09311913283)
(-0.197051116 0 0.2393469687)
(-0.2062945308 0 0.199629198)
(0.257800697 0 0.08433757589)
(0.2221822794 0 0.09259899269)
(-0.3386808375 0 0.3402474039)
(-0.3316737859 0 0.2984285495)
(0.3377018081 0 0.08475412336)
(0.2988645678 0 0.08068329376)
(0.05707353375 0 0.5547398567)
(-0.1780714724 0 0.6123755771)
(-0.08341317995 0 0.4240734279)
(-4.452798839 0 3.832434199)
(-4.392779655 0 3.775750516)
(-1.12619748 0 -0.9601038318)
(0.5125989759 0 0.3722084129)
(0.7374428171 0 0.2209184653)
(0.4721384624 0 0.0811605714)
(0.3866917566 0 0.08688379351)
(-4.469035356 0 3.872369108)
(2.109886371 0 1.738776615)
(0.7382677236 0 -0.1378096266)
(-4.329945688 0 3.781225117)
(0.2933794027 0 -0.4320736724)
(0.4857334304 0 -0.737621676)
(-1.089489442 0 -0.9869415403)
(0.01532690396 0 -0.02114051488)
(0.07886125315 0 -0.03624031968)
(0.0910152758 0 -0.0255635462)
(0.08043582192 0 -0.04150302413)
(0.1429338002 0 -0.005327581472)
(0.1560437498 0 0.01570170682)
(0.160715607 0 0.07592507611)
(1.206855701 0 -0.04146518362)
(0.8867830513 0 0.1761185298)
(1.120611537 0 0.2032928927)
(0.2576629437 0 -0.05370869414)
(0.2222310058 0 0.08189118539)
(0.2206109571 0 0.1032212488)
(0.2297018704 0 0.1494565997)
(0.221438026 0 -0.07909924059)
(0.3060785381 0 -0.1548242751)
(0.319578812 0 -0.2263106561)
(0.3078865729 0 -0.2145929285)
(0.3765467537 0 -0.2995220606)
(0.4809700887 0 -0.3716429359)
(0.4556477078 0 -0.3650145965)
(0.6053164839 0 -0.4222807921)
(0.7326234882 0 -0.4648348486)
(0.6828190379 0 -0.4621138245)
(0.8110260153 0 -0.4764367704)
(0.8888143224 0 -0.4707052752)
(0.9226835679 0 -0.5143673796)
(1.027712244 0 -0.4825142629)
(1.163465407 0 -0.4764251659)
(1.197919072 0 -0.4984048525)
(1.255615853 0 -0.4434831139)
(0.5448916214 0 -0.190420792)
(1.059756513 0 -0.2128510072)
(-0.5771859681 0 -0.02429772238)
(-0.5998388887 0 0.0780767842)
(-0.627329029 0 0.08419882153)
(-0.5494072766 0 0.08341504381)
(-0.4770759457 0 -0.04519872819)
(-0.4728552066 0 -0.0278073375)
(-0.524541923 0 -0.06546646948)
(-0.5366551172 0 0.009687320165)
(-0.584219641 0 -0.002617909921)
(-0.3813931836 0 0.09803657839)
(-0.3912478542 0 0.143854576)
(-0.3861569179 0 0.1301271617)
(-0.4406913491 0 0.1840985212)
(-0.4908636524 0 0.2210996691)
(-0.4737646859 0 0.2068966733)
(-0.5321131297 0 0.2549876035)
(-0.5665444244 0 0.2869831701)
(-0.5490592401 0 0.2707920754)