/*--------------------------------*- C++ -*----------------------------------*\
| =========                 |                                                 |
| \\      /  F ield         | OpenFOAM: The Open Source CFD Toolbox           |
|  \\    /   O peration     | Version:  2.1.x                                 |
|   \\  /    A nd           | Web:      www.OpenFOAM.org                      |
|    \\/     M anipulation  |                                                 |
\*---------------------------------------------------------------------------*/
FoamFile
{
    version     2.0;
    format      ascii;
    class       scalarField;
    location    "0.9";
    object      age;
}
// * * * * * * * * * * * * * * * * * * * * * * * * * * * * * * * * * * * * * //


29
(
0.005614347613
0.005420898063
0.00521650468
0.005012433221
0.004806259931
0.004627925575
0.004416260793
0.004210798923
0.004013437716
0.003810776343
0.003625085272
0.003411327855
0.003216686199
0.003007017003
0.002805881073
0.002611621932
0.002410040944
0.002219152985
0.002013633886
0.001809653114
0.00160445219
0.001406212055
0.001206962064
0.001013998735
0.0008140225703
0.0006112282174
0.0004150359574
0.0002068966732
1.124438442e-05
)


// ************************************************************************* //
