/*--------------------------------*- C++ -*----------------------------------*\
| =========                 |                                                 |
| \\      /  F ield         | OpenFOAM: The Open Source CFD Toolbox           |
|  \\    /   O peration     | Version:  2.1.x                                 |
|   \\  /    A nd           | Web:      www.OpenFOAM.org                      |
|    \\/     M anipulation  |                                                 |
\*---------------------------------------------------------------------------*/
FoamFile
{
    version     2.0;
    format      ascii;
    class       scalarField;
    location    "0.9";
    object      d;
}
// * * * * * * * * * * * * * * * * * * * * * * * * * * * * * * * * * * * * * //


29
(
0.0005028333551
0.000503155192
0.0005185392118
0.0006309985664
0.001060131506
0.00051006402
0.000664980476
0.0007273326511
0.0006233522055
0.0005054050648
0.0005392946333
0.0005219340618
0.0005206324082
0.000549040786
0.0005707126954
0.0005492400261
0.0005012988893
0.0005006912741
0.0005000596959
0.0008080719742
0.0007784112445
0.0005795331718
0.0005380132417
0.0008222033209
0.0005871132393
0.0005304842382
0.0005199037504
0.0009021480306
0.000902133124
)


// ************************************************************************* //
