/*--------------------------------*- C++ -*----------------------------------*\
| =========                 |                                                 |
| \\      /  F ield         | OpenFOAM: The Open Source CFD Toolbox           |
|  \\    /   O peration     | Version:  2.1.x                                 |
|   \\  /    A nd           | Web:      www.OpenFOAM.org                      |
|    \\/     M anipulation  |                                                 |
\*---------------------------------------------------------------------------*/
FoamFile
{
    version     2.0;
    format      ascii;
    class       scalarField;
    location    "0.9";
    object      mass0;
}
// * * * * * * * * * * * * * * * * * * * * * * * * * * * * * * * * * * * * * //


29
(
6.656881989e-08
6.669672322e-08
7.300345799e-08
1.315478456e-07
6.238466493e-07
6.948206076e-08
1.539661697e-07
2.014641959e-07
1.268233216e-07
6.759543882e-08
8.21252903e-08
7.444671565e-08
7.38911146e-08
8.665875497e-08
9.733100833e-08
8.675313137e-08
6.596124579e-08
6.572168513e-08
6.547329227e-08
2.762795604e-07
2.469596068e-07
1.019139234e-07
8.154127849e-08
2.910290235e-07
1.059654395e-07
7.816567387e-08
7.358130283e-08
3.844430716e-07
3.84424015e-07
)


// ************************************************************************* //
