/*--------------------------------*- C++ -*----------------------------------*\
| =========                 |                                                 |
| \\      /  F ield         | OpenFOAM: The Open Source CFD Toolbox           |
|  \\    /   O peration     | Version:  2.1.x                                 |
|   \\  /    A nd           | Web:      www.OpenFOAM.org                      |
|    \\/     M anipulation  |                                                 |
\*---------------------------------------------------------------------------*/
FoamFile
{
    version     2.0;
    format      ascii;
    class       scalarField;
    location    "0.9";
    object      nParticle;
}
// * * * * * * * * * * * * * * * * * * * * * * * * * * * * * * * * * * * * * //


29
(
2.034237786
2.16488125
1.933906896
1.072325839
0.215030352
1.894419413
0.9506298337
0.6950781077
1.065647124
2.116158165
1.570221249
1.985223206
1.822713233
1.674466458
1.430060351
1.548224744
2.113550082
2.010026938
2.172169722
0.5110779224
0.5752982682
1.346377418
1.693156435
0.4592951649
1.308548981
1.796722664
1.848312775
0.3757259403
0.3466938443
)


// ************************************************************************* //
