/*--------------------------------*- C++ -*----------------------------------*\
| =========                 |                                                 |
| \\      /  F ield         | OpenFOAM: The Open Source CFD Toolbox           |
|  \\    /   O peration     | Version:  2.1.x                                 |
|   \\  /    A nd           | Web:      www.OpenFOAM.org                      |
|    \\/     M anipulation  |                                                 |
\*---------------------------------------------------------------------------*/
FoamFile
{
    version     2.0;
    format      ascii;
    class       Cloud<basicReactingParcel>;
    location    "0.9";
    object      positions;
}
// * * * * * * * * * * * * * * * * * * * * * * * * * * * * * * * * * * * * * //

29
(
(0.02051418799 0.00149639465 0.01460053836) 96649
(0.0179201169 0.001588688602 0.00767244541) 4429
(0.01828256129 0.002621281847 0.01788531804) 115843
(0.009210436224 0.001444029172 0.01401251699) 91467
(0.01238161116 0.001696128849 0.01462928703) 96583
(0.01649476182 0.00312631935 0.01545359705) 102106
(0.01496793995 0.003252807326 0.009972072863) 67792
(0.008704769582 0.004065024285 0.01408785354) 92440
(0.01219252624 0.003988333172 0.012349824) 82669
(0.01224874842 0.004685833679 0.01132841926) 77965
(0.01126951824 0.00542237888 0.01050238259) 73448
(0.0107772409 0.00647823663 0.00930178966) 68735
(0.01763562525 0.007979789754 0.01376097211) 93693
(0.01446320157 0.007252672704 0.01176767255) 83665
(0.01054697093 0.0088145496 0.008625983361) 64750
(0.01493589641 0.008864754357 0.01045077379) 74456
(0.009180059424 0.009920632388 0.01447642888) 99107
(0.01529076125 0.0105119717 0.01002899663) 6960
(0.01105335866 0.01015186072 0.01246482494) 84425
(0.01013085058 0.01123087865 0.01355525206) 9977
(0.0126850667 0.01119863263 0.01279582559) 9230
(0.01062925411 0.01240406061 0.01135192536) 80107
(0.01307328398 0.01253543446 0.01336323279) 94824
(0.01328798146 0.01341365037 0.01389390648) 95218
(0.0122711525 0.01357680734 0.01268090356) 90307
(0.01279728223 0.01420322285 0.01270293531) 90315
(0.01176582767 0.01499642669 0.01254785252) 90504
(0.01253802934 0.01538850452 0.01240030898) 85809
(0.012500653 0.01596698825 0.01250690842) 90707
)


// ************************************************************************* //
