/*--------------------------------*- C++ -*----------------------------------*\
| =========                 |                                                 |
| \\      /  F ield         | OpenFOAM: The Open Source CFD Toolbox           |
|  \\    /   O peration     | Version:  2.1.x                                 |
|   \\  /    A nd           | Web:      www.OpenFOAM.org                      |
|    \\/     M anipulation  |                                                 |
\*---------------------------------------------------------------------------*/
FoamFile
{
    version     2.0;
    format      ascii;
    class       vectorField;
    location    "0.9";
    object      U;
}
// * * * * * * * * * * * * * * * * * * * * * * * * * * * * * * * * * * * * * //


29
(
(1.404200305 -2.568674912 0.3680443499)
(0.9841389842 -2.643180709 -0.8765465315)
(1.09246148 -2.5530641 1.017412911)
(-0.6494114231 -2.898124419 0.2985945483)
(-0.02451494431 -2.985508637 0.4409144546)
(0.8518076208 -2.767717257 0.6297988698)
(0.5540502619 -2.883380414 -0.5675173297)
(-0.8948514831 -2.834718571 0.3743891521)
(-0.07595634398 -2.986964741 -0.03709851582)
(-0.06520482696 -2.954925406 -0.3040487142)
(-0.3361965706 -2.907827868 -0.5457960814)
(-0.5002523556 -2.781645155 -0.9286918049)
(1.582316671 -2.486854421 0.3885130029)
(0.6478321487 -2.901269984 -0.2416589669)
(-0.6913089592 -2.557196873 -1.371276267)
(0.926456651 -2.726613559 -0.7793924425)
(-1.367786626 -2.516488899 0.8142714988)
(1.249355913 -2.467766864 -1.10620809)
(-0.7141471059 -2.896891565 -0.01736447529)
(-1.305695769 -2.637296857 0.5815750319)
(0.1150586536 -2.99299354 0.1839190607)
(-1.325879777 -2.555539554 -0.8136909178)
(0.4734522431 -2.867209529 0.7129093365)
(0.7759695057 -2.551945279 1.372657837)
(-0.280592246 -2.975143089 0.2218076946)
(0.4855512896 -2.937725906 0.3314543931)
(-1.766840827 -2.417260538 0.1151606855)
(0.1837586528 -2.955825081 -0.4817093457)
(0.05807216091 -2.935867098 0.6143738179)
)


// ************************************************************************* //
