/*--------------------------------*- C++ -*----------------------------------*\
| =========                 |                                                 |
| \\      /  F ield         | OpenFOAM: The Open Source CFD Toolbox           |
|  \\    /   O peration     | Version:  2.1.x                                 |
|   \\  /    A nd           | Web:      www.OpenFOAM.org                      |
|    \\/     M anipulation  |                                                 |
\*---------------------------------------------------------------------------*/
FoamFile
{
    version     2.0;
    format      ascii;
    class       scalarField;
    location    "0.2";
    object      age;
}
// * * * * * * * * * * * * * * * * * * * * * * * * * * * * * * * * * * * * * //


29
(
0.005830688461
0.005622450205
0.005222936248
0.005030107594
0.004831068359
0.004609745888
0.004419873494
0.004213865871
0.004009076513
0.003823946757
0.003621200189
0.003407471733
0.003226102451
0.00301425
0.002809686675
0.00263133219
0.002405528175
0.002226236781
0.002008449083
0.001834126779
0.001612656035
0.001407991154
0.001226887494
0.00103312025
0.0008148534513
0.0006135471658
0.0004201739155
0.000212056523
1.189719713e-05
)


// ************************************************************************* //
