/*--------------------------------*- C++ -*----------------------------------*\
| =========                 |                                                 |
| \\      /  F ield         | OpenFOAM: The Open Source CFD Toolbox           |
|  \\    /   O peration     | Version:  2.1.x                                 |
|   \\  /    A nd           | Web:      www.OpenFOAM.org                      |
|    \\/     M anipulation  |                                                 |
\*---------------------------------------------------------------------------*/
FoamFile
{
    version     2.0;
    format      ascii;
    class       scalarField;
    location    "0.2";
    object      d;
}
// * * * * * * * * * * * * * * * * * * * * * * * * * * * * * * * * * * * * * //


29
(
0.0005099074686
0.000502596134
0.0005090451245
0.0005000640856
0.0005584325925
0.0005165819699
0.0005004647943
0.0007167904589
0.0005626533958
0.0005142802074
0.0005191364894
0.0005084044997
0.0005607728616
0.0005732284166
0.000509927357
0.0005574538338
0.001050561786
0.0005023905835
0.000503271404
0.000540870094
0.0005009325171
0.000511100947
0.0005053990782
0.0007646530358
0.0005085925307
0.0005000111232
0.000538194918
0.0005080940674
0.0005194427801
)


// ************************************************************************* //
