/*--------------------------------*- C++ -*----------------------------------*\
| =========                 |                                                 |
| \\      /  F ield         | OpenFOAM: The Open Source CFD Toolbox           |
|  \\    /   O peration     | Version:  2.1.x                                 |
|   \\  /    A nd           | Web:      www.OpenFOAM.org                      |
|    \\/     M anipulation  |                                                 |
\*---------------------------------------------------------------------------*/
FoamFile
{
    version     2.0;
    format      ascii;
    class       scalarField;
    location    "0.2";
    object      mass0;
}
// * * * * * * * * * * * * * * * * * * * * * * * * * * * * * * * * * * * * * //


29
(
6.941810301e-08
6.647464907e-08
6.90665033e-08
6.547501651e-08
9.118237399e-08
7.217991305e-08
6.563254097e-08
1.928302968e-07
9.326559286e-08
7.121935783e-08
7.325601498e-08
6.88060742e-08
9.23335612e-08
9.862380564e-08
6.942622608e-08
9.070377076e-08
6.071044556e-07
6.639312252e-08
6.674294803e-08
8.284714161e-08
6.581672898e-08
6.990668035e-08
6.75930368e-08
2.340948576e-07
6.888244521e-08
6.545421513e-08
8.162391097e-08
6.868011196e-08
7.338575473e-08
)


// ************************************************************************* //
