/*--------------------------------*- C++ -*----------------------------------*\
| =========                 |                                                 |
| \\      /  F ield         | OpenFOAM: The Open Source CFD Toolbox           |
|  \\    /   O peration     | Version:  2.1.x                                 |
|   \\  /    A nd           | Web:      www.OpenFOAM.org                      |
|    \\/     M anipulation  |                                                 |
\*---------------------------------------------------------------------------*/
FoamFile
{
    version     2.0;
    format      ascii;
    class       scalarField;
    location    "0.2";
    object      nParticle;
}
// * * * * * * * * * * * * * * * * * * * * * * * * * * * * * * * * * * * * * //


29
(
1.998674476
1.797445726
2.007440006
2.167686479
1.490118684
2.034089642
2.028198952
0.7558702056
1.523949097
1.80530386
1.927923554
2.12250594
1.379690012
1.406875444
2.23242656
1.351244979
0.2522621384
1.99610953
2.254123996
1.598546389
1.905003866
2.263253582
1.897963688
0.5868915567
2.238784815
1.864959503
1.675481201
2.167128781
1.702770873
)


// ************************************************************************* //
