/*--------------------------------*- C++ -*----------------------------------*\
| =========                 |                                                 |
| \\      /  F ield         | OpenFOAM: The Open Source CFD Toolbox           |
|  \\    /   O peration     | Version:  2.1.x                                 |
|   \\  /    A nd           | Web:      www.OpenFOAM.org                      |
|    \\/     M anipulation  |                                                 |
\*---------------------------------------------------------------------------*/
FoamFile
{
    version     2.0;
    format      ascii;
    class       Cloud<basicReactingParcel>;
    location    "0.2";
    object      positions;
}
// * * * * * * * * * * * * * * * * * * * * * * * * * * * * * * * * * * * * * //

29
(
(0.003856039042 0.00197645481 0.007095209803) 53596
(0.01385529501 0.0008648957181 0.00549508187) 45044
(0.01297818434 0.000588530276 0.01035027033) 71694
(0.01125698175 0.001075845787 0.01180805941) 81676
(0.01091183598 0.00165548273 0.01259954851) 8778
(0.01053745535 0.002820833313 0.01589919117) 106682
(0.02043489593 0.005628973896 0.01416458007) 93124
(0.01239635989 0.003429888524 0.0137814478) 92273
(0.007916234719 0.005003213653 0.01123567472) 78120
(0.01602304428 0.005426725908 0.01003077802) 6758
(0.01229288918 0.005349533461 0.01061566217) 73261
(0.0143930422 0.006334003334 0.009939634671) 68773
(0.01433751962 0.006581998618 0.01146943639) 78573
(0.01421646754 0.007389231058 0.01043433591) 74063
(0.01180246131 0.007661554511 0.01176150468) 83840
(0.01349162936 0.008243847861 0.0134396468) 9861
(0.01434915716 0.009040246733 0.01189717458) 8392
(0.01031799794 0.01028815627 0.01513081181) 11429
(0.01262016784 0.01074283914 0.00959495783) 69935
(0.009109273609 0.0116843142 0.01241169413) 84797
(0.01175667253 0.01141487367 0.0111857529) 79920
(0.0110560517 0.01210028896 0.01180493138) 8508
(0.01342167607 0.01249633067 0.01311514316) 89934
(0.01117288111 0.01323364565 0.01293552782) 90109
(0.01208026918 0.01366570709 0.01308166307) 90311
(0.01221044841 0.01418444938 0.0125502809) 90309
(0.01213210796 0.0148326673 0.01220088967) 85609
(0.01258615655 0.01542619378 0.01223958742) 85809
(0.01251230172 0.01596681966 0.01250464869) 90707
)


// ************************************************************************* //
