/*--------------------------------*- C++ -*----------------------------------*\
| =========                 |                                                 |
| \\      /  F ield         | OpenFOAM: The Open Source CFD Toolbox           |
|  \\    /   O peration     | Version:  2.1.x                                 |
|   \\  /    A nd           | Web:      www.OpenFOAM.org                      |
|    \\/     M anipulation  |                                                 |
\*---------------------------------------------------------------------------*/
FoamFile
{
    version     2.0;
    format      ascii;
    class       vectorField;
    location    "0.2";
    object      U;
}
// * * * * * * * * * * * * * * * * * * * * * * * * * * * * * * * * * * * * * //


29
(
(-1.457925223 -2.393781309 -0.9115936541)
(0.2371117467 -2.675420901 -1.225525333)
(0.09018835093 -2.932262803 -0.4054515331)
(-0.2434681676 -2.947804351 -0.1355293922)
(-0.3247712637 -2.957061083 0.02035715228)
(-0.4202415929 -2.844663053 0.7278721059)
(1.77200333 -2.337704452 0.3717303244)
(-0.0244145397 -2.98185032 0.3018711346)
(-1.131997705 -2.735431129 -0.3122352978)
(0.9113552276 -2.753915335 -0.6387482478)
(-0.05661614881 -2.929222034 -0.515105627)
(0.5501066226 -2.82563263 -0.7440266891)
(0.5649931694 -2.911686314 -0.3168735697)
(0.5652992295 -2.850707448 -0.6803031756)
(-0.2462566667 -2.957623234 -0.2607158552)
(0.3743505882 -2.941013561 0.3547266217)
(0.7668440006 -2.898098483 -0.249991219)
(-0.97369879 -2.55986084 1.173976106)
(0.05947714047 -2.611978523 -1.437852248)
(-1.839695031 -2.350638176 -0.04791181784)
(-0.4587210496 -2.837573242 -0.8110460499)
(-1.021357031 -2.76541168 -0.4916472534)
(0.748510379 -2.851514463 0.4995692677)
(-1.282429208 -2.678372675 0.4208617617)
(-0.5138639194 -2.861895178 0.7121127378)
(-0.471049939 -2.956685035 0.08179825107)
(-0.8745523956 -2.777136778 -0.7110446282)
(0.4060210846 -2.705245486 -1.227219451)
(1.033943695 -2.78886317 0.3907160869)
)


// ************************************************************************* //
