/*--------------------------------*- C++ -*----------------------------------*\
| =========                 |                                                 |
| \\      /  F ield         | OpenFOAM: The Open Source CFD Toolbox           |
|  \\    /   O peration     | Version:  2.1.x                                 |
|   \\  /    A nd           | Web:      www.OpenFOAM.org                      |
|    \\/     M anipulation  |                                                 |
\*---------------------------------------------------------------------------*/
FoamFile
{
    version     2.0;
    format      ascii;
    class       scalarField;
    location    "2";
    object      age;
}
// * * * * * * * * * * * * * * * * * * * * * * * * * * * * * * * * * * * * * //


28
(
0.005818974944
0.00522350522
0.005013298285
0.004821743205
0.004618158621
0.0044376618
0.004239779302
0.004055814581
0.003818448749
0.003619581495
0.003430851545
0.003225084427
0.00304462355
0.002852870651
0.002625013481
0.00241700662
0.002209327268
0.002011378331
0.001821822248
0.001637674403
0.001433598941
0.001225030931
0.001013955671
0.0008196845734
0.0006188946475
0.000415883153
0.0002173692431
2.576620784e-05
)


// ************************************************************************* //
