/*--------------------------------*- C++ -*----------------------------------*\
| =========                 |                                                 |
| \\      /  F ield         | OpenFOAM: The Open Source CFD Toolbox           |
|  \\    /   O peration     | Version:  2.1.x                                 |
|   \\  /    A nd           | Web:      www.OpenFOAM.org                      |
|    \\/     M anipulation  |                                                 |
\*---------------------------------------------------------------------------*/
FoamFile
{
    version     2.0;
    format      ascii;
    class       scalarField;
    location    "2";
    object      d;
}
// * * * * * * * * * * * * * * * * * * * * * * * * * * * * * * * * * * * * * //


28
(
0.001043730752
0.0005024007987
0.0005032697611
0.0007028776993
0.0005151871487
0.0005064607032
0.0008321441479
0.000526694403
0.0005034273421
0.0005000085629
0.0005033111747
0.0005011914848
0.0008008060696
0.0005170784553
0.0006605025248
0.0005029779321
0.0005033763171
0.0005382851082
0.0005000128711
0.0007091521272
0.0005214321102
0.0005031654997
0.0005005149868
0.0005386496186
0.0005070918544
0.0005049092497
0.0005029339427
0.0005414148009
)


// ************************************************************************* //
