/*--------------------------------*- C++ -*----------------------------------*\
| =========                 |                                                 |
| \\      /  F ield         | OpenFOAM: The Open Source CFD Toolbox           |
|  \\    /   O peration     | Version:  2.1.x                                 |
|   \\  /    A nd           | Web:      www.OpenFOAM.org                      |
|    \\/     M anipulation  |                                                 |
\*---------------------------------------------------------------------------*/
FoamFile
{
    version     2.0;
    format      ascii;
    class       scalarField;
    location    "2";
    object      mass0;
}
// * * * * * * * * * * * * * * * * * * * * * * * * * * * * * * * * * * * * * //


28
(
5.95338626e-07
6.639717253e-08
6.674229439e-08
1.818184351e-07
7.159681212e-08
6.801988342e-08
3.017132009e-07
7.650234225e-08
6.680500794e-08
6.545320967e-08
6.675877225e-08
6.591885779e-08
2.688937394e-07
7.23882288e-08
1.508766625e-07
6.662625696e-08
6.678469689e-08
8.166495323e-08
6.545490154e-08
1.867311846e-07
7.423213266e-08
6.670082236e-08
6.565229016e-08
8.183096871e-08
6.827449955e-08
6.73966954e-08
6.660877751e-08
8.309769831e-08
)


// ************************************************************************* //
