/*--------------------------------*- C++ -*----------------------------------*\
| =========                 |                                                 |
| \\      /  F ield         | OpenFOAM: The Open Source CFD Toolbox           |
|  \\    /   O peration     | Version:  2.1.x                                 |
|   \\  /    A nd           | Web:      www.OpenFOAM.org                      |
|    \\/     M anipulation  |                                                 |
\*---------------------------------------------------------------------------*/
FoamFile
{
    version     2.0;
    format      ascii;
    class       scalarField;
    location    "2";
    object      nParticle;
}
// * * * * * * * * * * * * * * * * * * * * * * * * * * * * * * * * * * * * * //


28
(
0.2544589357
2.430004884
1.908900936
0.7187012665
2.019400915
2.018378713
0.4719227306
1.682136967
2.467278671
1.724149402
2.158612947
2.070907393
0.539030746
1.839857136
0.9209767156
2.147725366
2.319778088
1.687733293
2.010133599
0.6849768828
1.938967329
2.096760336
2.058226569
1.934474178
1.894464743
2.208953007
1.760230911
1.59514436
)


// ************************************************************************* //
