/*--------------------------------*- C++ -*----------------------------------*\
| =========                 |                                                 |
| \\      /  F ield         | OpenFOAM: The Open Source CFD Toolbox           |
|  \\    /   O peration     | Version:  2.1.x                                 |
|   \\  /    A nd           | Web:      www.OpenFOAM.org                      |
|    \\/     M anipulation  |                                                 |
\*---------------------------------------------------------------------------*/
FoamFile
{
    version     2.0;
    format      ascii;
    class       Cloud<basicReactingParcel>;
    location    "2";
    object      positions;
}
// * * * * * * * * * * * * * * * * * * * * * * * * * * * * * * * * * * * * * //

28
(
(0.01081307879 0.002334092285 0.001726429134) 32622
(0.007841716766 0.001257509431 0.01425046701) 96349
(0.01402626541 0.003254661918 0.004881549889) 41962
(0.009221218451 0.002537833657 0.01659061543) 106676
(0.008825404505 0.002792414368 0.01114912092) 77345
(0.01943207746 0.004749007355 0.01197032356) 82923
(0.009220043092 0.004147065282 0.01577053971) 102247
(0.006409554028 0.005953283996 0.01539787194) 102804
(0.0119500389 0.004701297142 0.01390888515) 92664
(0.01694467944 0.006308332832 0.01077159109) 73692
(0.008992462229 0.00792025656 0.007285693874) 55278
(0.01347561657 0.00660931844 0.01441748734) 98162
(0.007326674324 0.008746810738 0.0144910188) 98889
(0.0128894295 0.007515395467 0.01329072822) 88749
(0.01541877036 0.009014341995 0.01037043418) 6902
(0.01177102296 0.009361589659 0.01526094841) 103832
(0.01232064265 0.009472311666 0.0135192234) 94227
(0.01122141693 0.01019616693 0.01346851222) 9948
(0.009848190048 0.01168136802 0.01049691628) 75004
(0.01258080926 0.0112035414 0.01144543255) 79929
(0.01248733563 0.01215637567 0.01058807857) 75221
(0.01365396424 0.01260507547 0.0117230157) 8541
(0.01098203308 0.01357077984 0.01350885483) 10068
(0.01206808421 0.0135862471 0.01234422227) 85410
(0.01272386206 0.01429545514 0.01319716237) 90513
(0.01250772175 0.01475341196 0.01253212698) 90511
(0.01287834504 0.0154713381 0.01254845545) 9380
(0.01249033217 0.01593845196 0.01254575279) 90701
)


// ************************************************************************* //
