/*--------------------------------*- C++ -*----------------------------------*\
| =========                 |                                                 |
| \\      /  F ield         | OpenFOAM: The Open Source CFD Toolbox           |
|  \\    /   O peration     | Version:  2.1.x                                 |
|   \\  /    A nd           | Web:      www.OpenFOAM.org                      |
|    \\/     M anipulation  |                                                 |
\*---------------------------------------------------------------------------*/
FoamFile
{
    version     2.0;
    format      ascii;
    class       vectorField;
    location    "2";
    object      U;
}
// * * * * * * * * * * * * * * * * * * * * * * * * * * * * * * * * * * * * * //


28
(
(-0.2881909699 -2.363254231 -1.840539921)
(-0.8782129364 -2.804957718 0.3300105852)
(0.3000053531 -2.529821191 -1.49749565)
(-0.674127363 -2.791553155 0.8410428552)
(-0.7853392403 -2.845405762 -0.2887116013)
(1.542090578 -2.524649595 -0.1178303402)
(-0.7690051919 -2.799857505 0.7667972738)
(-1.485036564 -2.469629468 0.7065895998)
(-0.1424212175 -2.944754354 0.3648533298)
(1.214840622 -2.666774881 -0.4724168268)
(-1.012097251 -2.348292183 -1.504583911)
(0.2996336244 -2.899977538 0.5889031579)
(-1.691464494 -2.386522809 0.6509811695)
(0.1354063542 -2.964210223 0.2749396863)
(1.106150985 -2.660383044 -0.8070594925)
(-0.2994572284 -2.738950387 1.134172841)
(-0.08065338683 -2.94631289 0.4583242182)
(-0.6322562734 -2.879960668 0.4789269804)
(-1.447672233 -2.366664972 -1.09352055)
(0.04919904769 -2.928378569 -0.6420516289)
(-0.008798290391 -2.677420959 -1.32826496)
(0.9385492262 -2.767308103 -0.6319416083)
(-1.492495647 -2.393551527 0.9919263902)
(-0.5257528421 -2.942302343 -0.1896216426)
(0.3610386772 -2.752206131 1.124364609)
(0.01854342082 -2.995774589 0.07715146095)
(1.739355748 -2.431566657 0.222762983)
(-0.3751708808 -2.388652767 1.775488443)
)


// ************************************************************************* //
