/*--------------------------------*- C++ -*----------------------------------*\
| =========                 |                                                 |
| \\      /  F ield         | OpenFOAM: The Open Source CFD Toolbox           |
|  \\    /   O peration     | Version:  2.1.x                                 |
|   \\  /    A nd           | Web:      www.OpenFOAM.org                      |
|    \\/     M anipulation  |                                                 |
\*---------------------------------------------------------------------------*/
FoamFile
{
    version     2.0;
    format      ascii;
    class       scalarField;
    location    "1.7";
    object      age;
}
// * * * * * * * * * * * * * * * * * * * * * * * * * * * * * * * * * * * * * //


29
(
0.006007517274
0.005608384066
0.005209604902
0.005008883122
0.004807918629
0.004606487261
0.004404797294
0.004204210282
0.004008956273
0.0038098474
0.003605172932
0.003405408329
0.003205869435
0.003005873007
0.002809268382
0.002611036857
0.002410236273
0.002210404123
0.002002743357
0.001805405671
0.001610020424
0.001404807716
0.001209323979
0.001006415572
0.0008110757582
0.0006115642441
0.0004108650673
0.0002051730606
8.980724569e-06
)


// ************************************************************************* //
