/*--------------------------------*- C++ -*----------------------------------*\
| =========                 |                                                 |
| \\      /  F ield         | OpenFOAM: The Open Source CFD Toolbox           |
|  \\    /   O peration     | Version:  2.1.x                                 |
|   \\  /    A nd           | Web:      www.OpenFOAM.org                      |
|    \\/     M anipulation  |                                                 |
\*---------------------------------------------------------------------------*/
FoamFile
{
    version     2.0;
    format      ascii;
    class       scalarField;
    location    "1.7";
    object      d;
}
// * * * * * * * * * * * * * * * * * * * * * * * * * * * * * * * * * * * * * //


29
(
0.0007358289689
0.0005228390979
0.0005325564634
0.0007550527169
0.0006367503881
0.0005003262225
0.0005000615409
0.0009854497968
0.00070246201
0.000566188805
0.0005098097783
0.0006525377734
0.0005077179643
0.0005081503853
0.0009143061191
0.0005601842071
0.0008187049589
0.0006048387587
0.0007255818476
0.0005022349418
0.0005422721415
0.0005061647027
0.0005002194751
0.0005035251184
0.001105979581
0.0005200569347
0.0005059030016
0.0005002759679
0.0005081352434
)


// ************************************************************************* //
