/*--------------------------------*- C++ -*----------------------------------*\
| =========                 |                                                 |
| \\      /  F ield         | OpenFOAM: The Open Source CFD Toolbox           |
|  \\    /   O peration     | Version:  2.1.x                                 |
|   \\  /    A nd           | Web:      www.OpenFOAM.org                      |
|    \\/     M anipulation  |                                                 |
\*---------------------------------------------------------------------------*/
FoamFile
{
    version     2.0;
    format      ascii;
    class       scalarField;
    location    "1.7";
    object      mass0;
}
// * * * * * * * * * * * * * * * * * * * * * * * * * * * * * * * * * * * * * //


29
(
2.086071871e-07
7.48346604e-08
7.908527004e-08
2.253878217e-07
1.351780811e-07
6.557803785e-08
6.547401697e-08
5.010743077e-07
1.814960377e-07
9.50347543e-08
6.93782124e-08
1.454841203e-07
6.852770895e-08
6.87029523e-08
4.001966983e-07
9.204309316e-08
2.873299419e-07
1.158557152e-07
2.000128277e-07
6.633143543e-08
8.349308408e-08
6.790069062e-08
6.553607246e-08
6.684394037e-08
7.083370344e-07
7.364636192e-08
6.779542549e-08
6.555827913e-08
6.869681085e-08
)


// ************************************************************************* //
