/*--------------------------------*- C++ -*----------------------------------*\
| =========                 |                                                 |
| \\      /  F ield         | OpenFOAM: The Open Source CFD Toolbox           |
|  \\    /   O peration     | Version:  2.1.x                                 |
|   \\  /    A nd           | Web:      www.OpenFOAM.org                      |
|    \\/     M anipulation  |                                                 |
\*---------------------------------------------------------------------------*/
FoamFile
{
    version     2.0;
    format      ascii;
    class       scalarField;
    location    "1.7";
    object      nParticle;
}
// * * * * * * * * * * * * * * * * * * * * * * * * * * * * * * * * * * * * * //


29
(
0.6627684747
1.853788306
1.749369752
0.6185530872
1.032590888
2.133243496
2.139831703
0.27433207
0.7511811292
1.471137187
2.06064543
0.9531535146
2.020760904
2.021300162
0.3412097973
1.49401726
0.4838113117
1.196046567
0.7208884772
2.066214351
1.62539783
2.073612086
2.094061564
2.118774155
0.1920390875
1.88146023
2.058830086
2.171706656
1.952212424
)


// ************************************************************************* //
