/*--------------------------------*- C++ -*----------------------------------*\
| =========                 |                                                 |
| \\      /  F ield         | OpenFOAM: The Open Source CFD Toolbox           |
|  \\    /   O peration     | Version:  2.1.x                                 |
|   \\  /    A nd           | Web:      www.OpenFOAM.org                      |
|    \\/     M anipulation  |                                                 |
\*---------------------------------------------------------------------------*/
FoamFile
{
    version     2.0;
    format      ascii;
    class       Cloud<basicReactingParcel>;
    location    "1.7";
    object      positions;
}
// * * * * * * * * * * * * * * * * * * * * * * * * * * * * * * * * * * * * * //

29
(
(0.006959030096 0.000410085189 0.005424260383) 44833
(0.01858751323 0.001458654008 0.006985635715) 3751
(0.003469574784 0.003686788242 0.01526015074) 11131
(0.01793058165 0.002393406599 0.009202348038) 67425
(0.009288203081 0.003752621229 0.005688456195) 45930
(0.01279395735 0.002266123678 0.01254728127) 86983
(0.01681973702 0.003871246061 0.009916257054) 68008
(0.009572829379 0.003751439598 0.01143700981) 77746
(0.01240253377 0.003986242299 0.01214515192) 82669
(0.01195161515 0.00516363571 0.01596727497) 107423
(0.01236723372 0.005915200135 0.01626092868) 107606
(0.01246703251 0.005796937543 0.01262161335) 88153
(0.01397634371 0.006811313604 0.01023795924) 73857
(0.01269996582 0.00882915747 0.007105875958) 55674
(0.01313568911 0.009274564799 0.01754226229) 113077
(0.007779170401 0.009800662901 0.01198994206) 8414
(0.011120024 0.009456558219 0.01525200137) 11401
(0.01480058149 0.009795767518 0.01226846189) 84452
(0.01018878399 0.01119113582 0.01525221449) 11458
(0.0135823545 0.01115648848 0.01036674823) 6987
(0.01098626912 0.01142192081 0.01248927181) 84817
(0.01069890264 0.01235324983 0.01357031255) 94803
(0.01255746764 0.0123791694 0.01241574516) 85027
(0.01108641834 0.01341773956 0.01185035969) 8568
(0.01225140826 0.0136497117 0.01191597147) 85407
(0.01334950093 0.01441498055 0.0121441716) 85620
(0.01211904221 0.01483112319 0.0124209759) 85609
(0.01252804975 0.01541872288 0.0123000373) 85809
(0.01250521184 0.0159775624 0.01251397372) 90707
)


// ************************************************************************* //
