/*--------------------------------*- C++ -*----------------------------------*\
| =========                 |                                                 |
| \\      /  F ield         | OpenFOAM: The Open Source CFD Toolbox           |
|  \\    /   O peration     | Version:  2.1.x                                 |
|   \\  /    A nd           | Web:      www.OpenFOAM.org                      |
|    \\/     M anipulation  |                                                 |
\*---------------------------------------------------------------------------*/
FoamFile
{
    version     2.0;
    format      ascii;
    class       vectorField;
    location    "1.7";
    object      U;
}
// * * * * * * * * * * * * * * * * * * * * * * * * * * * * * * * * * * * * * //


29
(
(-0.9131033733 -2.5984579 -1.166019997)
(1.068771327 -2.580370402 -0.9681448264)
(-1.7093505 -2.356189691 0.5224632215)
(1.075457452 -2.719129018 -0.653057923)
(-0.6614145158 -2.545657948 -1.402720677)
(0.06295336283 -2.963731233 0.01012567019)
(0.9680344284 -2.739531498 -0.5790056459)
(-0.6930331201 -2.920562613 -0.2516721795)
(-0.02413787032 -2.994889246 -0.08787943177)
(-0.1425971249 -2.83644336 0.9015993841)
(-0.03644773074 -2.786180667 1.032470827)
(-0.009615270007 -2.992506845 0.03546964569)
(0.4562694689 -2.855499064 -0.6990920395)
(0.06595102176 -2.379753607 -1.779043969)
(0.2255051644 -2.399580593 1.788698552)
(-1.796270677 -2.371648415 -0.194076508)
(-0.570567009 -2.717299281 1.13784674)
(1.035667102 -2.803852458 -0.1042329533)
(-1.150070805 -2.402754519 1.3695135)
(0.596332208 -2.677445205 -1.175332793)
(-0.9362227997 -2.839402204 -0.006635246633)
(-1.276859897 -2.592223522 0.7587814025)
(0.04735014713 -2.9893272 -0.0694213157)
(-1.400414132 -2.56317854 -0.6435889021)
(-0.3062627784 -2.899552326 -0.7195178676)
(1.386665056 -2.590313835 -0.580829048)
(-0.926080845 -2.843512269 -0.192101883)
(0.1366265046 -2.832368856 -0.9739908711)
(0.5803110856 -2.498383474 1.555900938)
)


// ************************************************************************* //
