/*--------------------------------*- C++ -*----------------------------------*\
| =========                 |                                                 |
| \\      /  F ield         | OpenFOAM: The Open Source CFD Toolbox           |
|  \\    /   O peration     | Version:  2.1.x                                 |
|   \\  /    A nd           | Web:      www.OpenFOAM.org                      |
|    \\/     M anipulation  |                                                 |
\*---------------------------------------------------------------------------*/
FoamFile
{
    version     2.0;
    format      ascii;
    class       surfaceScalarField;
    location    "0.1";
    object      phi;
}
// * * * * * * * * * * * * * * * * * * * * * * * * * * * * * * * * * * * * * //

dimensions      [1 1 -1 0 0 0 0];

internalField   nonuniform List<scalar> 
5536
(
1.396819366e-10
-3.062935769e-10
-8.022094256e-11
5.65786427e-11
-2.460941694e-10
-2.945467123e-11
1.522472233e-11
-1.458087702e-10
-7.271015594e-12
9.667487596e-13
-1.297010401e-10
5.498310863e-12
-7.637122895e-12
-4.320900369e-11
-1.258578708e-08
-5.136237105e-09
3.308093193e-09
-5.693423494e-09
-1.444465924e-09
3.265923374e-09
1.184076638e-09
-1.966699995e-09
-7.759517838e-10
1.560676527e-09
5.278388879e-10
-1.045700899e-09
-3.197503297e-10
2.817086626e-10
1.164078726e-10
-2.709606067e-10
-8.552027127e-11
2.499653202e-10
6.354987251e-11
-2.583928323e-10
-4.165387511e-11
1.729132837e-10
2.427236528e-11
-2.058188417e-10
-1.734772115e-11
1.73831752e-10
3.475567709e-12
-2.220156048e-10
8.060352178e-12
4.514813539e-11
-8.20833305e-12
-6.271788196e-11
-9.463329058e-13
3.602696661e-11
-4.083120192e-12
-4.603570944e-11
1.031448391e-11
6.4414015e-11
-6.463764368e-11
1.212219806e-11
-1.634910352e-11
-2.94530916e-11
-2.897665368e-10
8.933609411e-11
-2.844966667e-09
-2.288806741e-09
7.510640283e-09
3.348236082e-09
-8.417865327e-09
-5.678306941e-09
9.857477631e-09
5.075546415e-09
-7.665358594e-09
-3.181851381e-09
3.504235974e-09
1.629295364e-09
-2.109244926e-09
-8.059709984e-10
1.194641313e-09
4.600155604e-10
-7.825961171e-10
-3.175102388e-10
7.609399947e-10
2.448416343e-10
-6.151741401e-10
-1.862552034e-10
2.671079432e-10
1.196850814e-10
-2.709884422e-10
-9.329086583e-11
2.679244124e-10
7.020736689e-11
-2.741616636e-10
-5.421909548e-11
2.443743236e-10
4.274539551e-11
-2.802941079e-10
-3.356663238e-11
2.729830457e-10
9.236961963e-12
-3.266209343e-10
1.040164571e-11
8.608602475e-11
-1.273670445e-11
-1.044869368e-10
-3.226782975e-12
5.924310291e-11
-6.33650683e-12
-7.73269209e-11
1.909651621e-11
7.346464717e-11
-2.948048186e-11
-8.116822698e-11
3.11391755e-11
3.421101092e-10
-5.464865828e-11
-3.950337141e-10
1.102734049e-10
6.434676871e-10
-1.877409931e-10
-7.675366313e-10
3.03438562e-10
-1.352384626e-09
5.832110444e-10
-3.49479062e-10
1.419679032e-09
-1.897626045e-09
-1.659145485e-09
3.563707401e-09
2.596710668e-09
-4.682202811e-09
-4.099305499e-09
8.815436408e-09
5.356337994e-09
-8.667795666e-09
-4.927864253e-09
5.612999542e-09
3.145617234e-09
-4.066809249e-09
-1.516023538e-09
1.322571204e-09
6.789589445e-10
-8.991191934e-10
-3.521487456e-10
5.570370725e-10
2.307661477e-10
-4.24114836e-10
-1.856157427e-10
5.302919416e-10
1.734170653e-10
-4.630379009e-10
-1.691569672e-10
2.920785243e-10
1.412982346e-10
-3.482273099e-10
-1.02906542e-10
2.7139484e-10
7.348628234e-11
-2.564180796e-10
-6.326995091e-11
2.934800421e-10
6.13392092e-11
-2.683313948e-10
-4.489525871e-11
3.828647106e-10
9.060986658e-12
-4.399796258e-10
1.480443592e-11
1.311033128e-10
-2.39961806e-11
-1.51566225e-10
2.326032628e-11
8.357076292e-11
-1.736911476e-11
-1.010573874e-10
1.303698236e-11
9.133887184e-11
-2.158785739e-11
-1.455740612e-10
3.841479372e-11
4.768435714e-10
-1.489731972e-10
-5.464495429e-10
2.285197041e-10
9.433656697e-10
-4.051207279e-10
-1.153334739e-09
6.772080049e-10
1.770127889e-09
-1.020961168e-09
-2.164763446e-09
1.352727617e-09
1.882752395e-09
-2.547901303e-09
1.151840526e-09
-1.514166024e-09
-9.632657746e-10
-1.359313923e-09
1.26969092e-09
1.216737544e-09
-1.510941707e-09
-1.498024436e-09
2.345565525e-09
2.043008183e-09
-3.915962292e-09
-3.158395292e-09
6.461176327e-09
4.817945797e-09
-8.914625776e-09
-5.985640438e-09
8.290664218e-09
5.526920313e-09
-7.672494809e-09
-3.74266887e-09
3.036169774e-09
1.920809537e-09
-2.385848695e-09
-8.395245282e-10
6.745188184e-10
3.842728121e-10
-5.620590551e-10
-2.194385456e-10
3.435380887e-10
1.563089013e-10
-3.003685642e-10
-1.31918965e-10
3.918069383e-10
1.369478356e-10
-3.106340089e-10
-1.697268131e-10
4.544120567e-10
2.164120559e-10
-5.748572682e-10
-1.268922928e-10
2.322275034e-10
6.520050807e-11
-2.050833781e-10
-5.233142757e-11
2.158326345e-10
4.082392489e-11
-1.654110953e-10
-7.439425255e-12
4.945088058e-10
-2.568152678e-11
-5.283275085e-10
3.164595031e-11
1.543693053e-10
-2.673633241e-11
-1.374333855e-10
2.293250387e-11
1.30419076e-10
-2.609721277e-11
-1.459801544e-10
4.557153262e-11
2.43235573e-10
-1.054424417e-10
-3.355156887e-10
2.310103461e-10
6.476715588e-10
-3.7767515e-10
-7.208961749e-10
5.740373374e-10
1.311216401e-09
-8.410319721e-10
-1.321196796e-09
1.191507395e-09
2.375087387e-09
-1.6239202e-09
-2.301794447e-09
2.09434893e-09
3.032907788e-09
-2.477130978e-09
-3.115330229e-09
2.561197624e-09
1.900937381e-09
-2.194325621e-09
-2.321012444e-09
1.533896145e-09
-1.025495229e-09
-8.905805409e-10
1.44472985e-09
1.733178744e-09
-3.388576405e-09
-2.191088977e-09
2.873782238e-09
3.17391231e-09
-6.435732226e-09
-4.912189206e-09
7.487163819e-09
7.165546772e-09
-1.107339209e-08
-8.850499882e-09
1.073790912e-08
8.894093464e-09
-1.009006094e-08
-7.266442102e-09
6.563750562e-09
4.886394247e-09
-4.919297774e-09
-2.769520845e-09
1.953241439e-09
1.383400958e-09
-1.605766859e-09
-6.51908506e-10
5.175301591e-10
3.262062531e-10
-5.146501923e-10
-2.039090665e-10
2.89430922e-10
1.47937952e-10
-3.076946072e-10
-1.072731091e-10
2.338155929e-10
9.070429112e-11
-1.892076757e-10
-1.08029043e-10
5.707349133e-10
1.646440865e-10
-3.774337019e-10
-1.281985852e-10
1.800604602e-10
5.000057838e-11
-1.60173827e-10
-3.105706488e-11
1.224323e-10
1.047992753e-11
-7.923665484e-11
1.384867276e-11
5.136762215e-10
-4.491747765e-11
-3.991096647e-10
2.524443182e-11
1.09020289e-10
-1.885865372e-11
-8.87640966e-11
2.731942743e-11
1.55576263e-10
-6.644875156e-11
-1.661360612e-10
1.44145203e-10
3.676861145e-10
-2.532620743e-10
-3.433477359e-10
3.812018694e-10
6.841916211e-10
-5.165717075e-10
-5.7257919e-10
6.664725482e-10
1.166113733e-09
-8.491183284e-10
-9.311602969e-10
1.088364748e-09
1.98865003e-09
-1.406257759e-09
-1.572766522e-09
1.801282948e-09
2.826996386e-09
-2.214014533e-09
-2.328753185e-09
2.504377637e-09
2.476339439e-09
-2.506735297e-09
-2.351546471e-09
2.189353723e-09
1.447539039e-09
-1.753001241e-09
-1.803285453e-09
1.44374192e-09
-1.53869042e-09
-1.304528381e-09
4.172731753e-09
-5.520131492e-09
-7.414296247e-09
8.55712691e-09
6.479452305e-09
-8.052801097e-09
-9.931991498e-09
9.856996388e-09
1.123881431e-08
-9.634317464e-09
-1.171661219e-08
1.100103034e-08
1.081552638e-08
-7.77033714e-09
-8.739772359e-09
7.186851783e-09
6.249087681e-09
-4.132880939e-09
-4.06249323e-09
3.195246503e-09
2.499346195e-09
-1.912062619e-09
-1.517291235e-09
1.279250357e-09
9.302117344e-10
-9.89718822e-10
-5.760759961e-10
5.381301855e-10
3.680842159e-10
-6.292559643e-10
-2.688852783e-10
3.511614565e-10
2.057449477e-10
-4.155882927e-10
-1.348994915e-10
1.898201069e-10
8.273872997e-11
-2.30003154e-10
-5.580526398e-11
1.939103805e-10
3.292823136e-11
-1.544651236e-10
9.029753468e-12
1.466217239e-10
3.450238323e-11
-1.385385165e-10
-1.241441356e-11
4.150336709e-11
-2.565646398e-12
-1.847759452e-11
9.48554195e-12
1.983204789e-10
-2.203193627e-11
-6.607242175e-11
1.622930244e-11
8.57952303e-11
-2.154033272e-11
-6.317984118e-11
4.579370038e-11
1.582754855e-10
-8.919323842e-11
-1.260480729e-10
1.430738862e-10
2.890116306e-10
-2.025273431e-10
-2.247943253e-10
2.654482805e-10
4.523806629e-10
-3.328192658e-10
-3.473405006e-10
4.095793543e-10
7.089106951e-10
-5.05401451e-10
-5.307910164e-10
6.350676906e-10
1.177855086e-09
-8.157270196e-10
-8.582567843e-10
1.057994369e-09
1.789416344e-09
-1.349614242e-09
-1.31535541e-09
1.641442038e-09
2.041025159e-09
-1.862686689e-09
-1.664674407e-09
1.980329552e-09
1.978507831e-09
-2.040108731e-09
-1.939779214e-09
2.119587802e-09
2.06365651e-09
-2.283564757e-09
2.430087182e-09
-2.257204355e-09
-4.530270344e-09
-9.274368051e-09
6.063107601e-09
8.671096832e-09
-4.341013416e-09
-8.644570279e-09
6.920298416e-09
8.741234472e-09
-4.816742607e-09
-8.573817828e-09
6.903969571e-09
7.725331751e-09
-4.30347312e-09
-6.215077734e-09
4.478269993e-09
4.499019032e-09
-2.50601051e-09
-3.032693326e-09
2.220714699e-09
1.993501844e-09
-1.288116513e-09
-1.334313148e-09
1.168868409e-09
9.36836669e-10
-7.974313298e-10
-7.042113589e-10
8.253478491e-10
5.936349234e-10
-1.171220627e-09
-6.37102163e-10
1.380969534e-09
9.28825294e-10
-6.760431279e-09
-1.201418907e-09
4.937616809e-10
3.430523441e-10
-5.588193105e-10
-2.302311231e-10
3.126225555e-10
1.583800807e-10
-4.687175e-10
-1.174344569e-10
2.104567e-10
3.103079084e-11
-3.839554576e-10
2.637375523e-11
1.382284265e-10
2.963392226e-11
-1.611762869e-10
-1.340912111e-11
1.132224067e-11
5.631579693e-13
-1.32584799e-11
2.789076572e-12
1.789416086e-11
-3.849864586e-12
-4.739414227e-12
8.498314079e-12
3.377881024e-11
-1.459345077e-11
-1.547840129e-11
2.628705487e-11
8.379861023e-11
-4.522721648e-11
-4.903138249e-11
7.190369993e-11
1.622882699e-10
-1.047727555e-10
-1.075308721e-10
1.415880083e-10
2.584924767e-10
-1.812256092e-10
-1.82576634e-10
2.249727903e-10
3.92911114e-10
-2.770913413e-10
-2.844472687e-10
3.446938196e-10
6.181299774e-10
-4.368376718e-10
-4.429385096e-10
5.624250582e-10
9.467935666e-10
-7.2603464e-10
-6.81890355e-10
9.250399183e-10
1.309470103e-09
-1.152900811e-09
-1.015944514e-09
1.407059472e-09
1.743351088e-09
-1.691374609e-09
-1.478473609e-09
2.004062527e-09
2.199136859e-09
-2.322265639e-09
-1.944367314e-09
2.597808318e-09
2.215510755e-09
-2.015255924e-09
2.93829418e-09
-2.781692421e-09
2.77974046e-09
5.313022776e-09
-1.818290602e-09
-4.09074736e-09
2.741386067e-09
3.862692307e-09
-1.704368221e-09
-3.892783397e-09
3.144277426e-09
3.942169851e-09
-2.065078723e-09
-3.710722165e-09
2.679755486e-09
3.107177026e-09
-1.750248154e-09
-2.3388062e-09
1.524900572e-09
1.657377891e-09
-1.020374964e-09
-1.163825182e-09
8.462045207e-10
8.400726499e-10
-6.200631698e-10
-6.46672773e-10
6.904221802e-10
6.052138446e-10
-1.024376659e-09
-1.006559772e-09
4.045012087e-09
3.164093084e-09
-1.345031335e-08
-9.136295949e-09
2.24577791e-08
1.521644762e-08
-3.705932026e-08
-1.256681074e-08
6.345744026e-10
9.492794837e-10
-1.271599278e-09
-2.598140032e-10
8.069556681e-10
2.407782355e-10
-2.025650954e-09
-3.714215616e-10
8.241046014e-10
3.602201325e-10
-1.965188477e-09
-2.122910557e-10
2.41165452e-10
1.038116532e-10
-4.414028077e-10
-3.004673906e-11
1.933526454e-11
5.932916421e-12
-3.113809376e-11
9.045218866e-13
2.949908151e-12
-8.836546646e-13
-6.747994652e-12
2.194212224e-12
9.044901292e-12
-4.28051939e-12
-1.155998118e-11
7.646564394e-12
2.730742142e-11
-1.372994913e-11
-1.808339072e-11
2.37578081e-11
6.424949197e-11
-3.797286609e-11
-3.523484465e-11
5.583893437e-11
1.1851787e-10
-7.70420826e-11
-6.843339625e-11
1.024204876e-10
1.973390194e-10
-1.341968409e-10
-1.280167127e-10
1.757332551e-10
3.156686239e-10
-2.315274322e-10
-2.227337383e-10
3.073059804e-10
4.993130047e-10
-4.09653863e-10
-3.737760254e-10
5.450373581e-10
7.894394268e-10
-7.189190828e-10
-6.178189502e-10
9.344780911e-10
1.210594299e-09
-1.189813719e-09
-9.687605699e-10
1.472372718e-09
1.630951235e-09
-1.751401313e-09
-1.312835478e-09
1.975216132e-09
1.69014615e-09
-2.081565439e-09
-1.342520295e-09
2.02954427e-09
-9.27048237e-10
-1.947237132e-09
-8.578072982e-10
-2.481224164e-09
1.816812696e-09
1.117704358e-09
-7.174671566e-10
-1.652927753e-09
1.085403181e-09
1.652920959e-09
-6.955993314e-10
-1.761925016e-09
1.35551473e-09
1.852223735e-09
-8.590324177e-10
-1.781699508e-09
1.17847316e-09
1.526812791e-09
-7.905452398e-10
-1.196913195e-09
7.27158299e-10
9.040357979e-10
-5.396822418e-10
-6.926277397e-10
5.114934766e-10
5.857737821e-10
-4.862653381e-10
-7.665107389e-10
2.414509141e-09
2.452019815e-09
-4.656779437e-09
-9.952896696e-09
2.475952661e-08
2.383490269e-08
-2.840202293e-08
-3.358645089e-08
4.406172326e-08
3.355818778e-08
-6.40504894e-08
-1.799138347e-08
4.863834432e-09
6.101165087e-09
-1.273729113e-08
-4.713239904e-09
5.768211948e-09
5.841913359e-09
-7.980476239e-09
-4.88280893e-09
3.636827566e-09
3.233733993e-09
-3.530035359e-09
-1.636786168e-09
6.999345959e-10
5.413913832e-10
-7.565864469e-10
-5.813611797e-11
5.616683343e-11
2.359724495e-11
-1.061481052e-10
-8.714706537e-13
1.859036531e-11
-5.765327513e-12
-4.530839325e-11
1.466504268e-11
2.481412033e-11
-2.020925685e-11
-5.609051727e-11
2.154852767e-11
2.081341892e-11
-2.026413198e-11
-3.793212296e-11
1.839819652e-11
2.10959174e-11
-1.742284722e-11
-1.930232199e-11
1.833869087e-11
3.503283759e-11
-2.215973523e-11
-1.740596558e-11
3.061315335e-11
7.60837203e-11
-4.646376121e-11
-4.134877445e-11
7.313450553e-11
1.546623919e-10
-1.140973597e-10
-1.050271311e-10
1.723091253e-10
2.845235238e-10
-2.499522744e-10
-2.175275465e-10
3.486898012e-10
4.861163783e-10
-4.699417849e-10
-3.823660585e-10
6.142320024e-10
7.617428028e-10
-7.79061561e-10
-5.892413266e-10
9.553762728e-10
1.017643721e-09
-1.122961187e-09
-7.599955646e-10
1.24857124e-09
1.017169613e-09
-1.292609885e-09
-7.295671539e-10
1.230174052e-09
6.517145341e-10
-4.957313489e-10
9.409667569e-10
-1.076902931e-09
5.121840332e-10
-2.352928094e-10
-8.870934481e-10
8.128778365e-10
4.640206533e-10
-2.760856579e-10
-7.661990756e-10
4.355078186e-10
7.670637818e-10
-2.570811768e-10
-8.019737484e-10
5.10936282e-10
8.338576768e-10
-2.857028329e-10
-8.263699452e-10
5.135284468e-10
7.685426164e-10
-3.196986008e-10
-6.816705851e-10
4.157172672e-10
5.986574849e-10
-3.348388963e-10
-5.490473739e-10
4.63264532e-10
6.309908599e-10
-3.532699683e-10
-1.424327607e-09
4.536500152e-09
5.285609962e-09
-1.098600561e-09
-1.558188564e-08
2.800549424e-08
3.745095392e-08
-3.571805261e-08
-8.697513537e-08
1.332063534e-07
1.300951509e-07
-1.369545137e-07
-2.139391816e-08
1.591067618e-08
1.23574323e-08
-1.052123523e-08
-1.034022296e-08
6.500618701e-09
7.053683135e-09
-4.46302738e-09
-4.088166269e-09
2.49009477e-09
2.24010812e-09
-1.831481767e-09
-1.150800433e-09
6.875010172e-10
5.132595035e-10
-7.563730898e-10
-1.404806246e-10
1.953848964e-10
8.042208507e-11
-3.355088685e-10
3.413269548e-12
9.402221166e-11
-4.202216353e-11
-1.624512046e-10
7.810725945e-11
1.122115783e-10
-9.874177797e-11
-1.844660805e-10
1.005678788e-10
7.346274134e-11
-8.709305239e-11
-1.225890782e-10
6.476255138e-11
2.6594042e-11
-4.091581803e-11
-3.957171718e-11
2.271045095e-11
1.053939236e-11
-1.282836121e-11
-9.479954811e-12
9.860448091e-12
2.133948942e-11
-1.298780343e-11
-1.164110478e-11
2.443019978e-11
6.93309233e-11
-4.8435067e-11
-4.437885188e-11
8.84159131e-11
1.64548198e-10
-1.448429466e-10
-1.210373324e-10
2.15651266e-10
2.976907735e-10
-2.977640424e-10
-2.254096053e-10
3.8757852e-10
4.458882295e-10
-4.800961639e-10
-3.244036019e-10
5.674915163e-10
5.434765319e-10
-6.38052566e-10
-3.667838283e-10
6.772940539e-10
4.951286734e-10
-6.735959371e-10
-3.152181324e-10
6.275914007e-10
3.464870962e-10
-2.308121778e-10
4.813507864e-10
-5.561496679e-10
1.481158652e-10
3.111807335e-10
-8.461040251e-11
-3.014094319e-10
1.428428241e-10
2.885544876e-10
-6.726063276e-11
-2.740500512e-10
1.35834656e-10
2.727909493e-10
-5.995077784e-11
-2.929874107e-10
1.581849773e-10
3.26902151e-10
-8.797904124e-11
-3.649024215e-10
2.020329344e-10
4.057140022e-10
-1.439089969e-10
-4.533074137e-10
2.874222528e-10
5.082489609e-10
-2.64403411e-10
-5.580904352e-10
3.627504312e-10
6.009787332e-10
-3.824385089e-10
-7.501291186e-10
9.380268499e-10
1.418111529e-09
-1.18069435e-09
-4.034543827e-09
7.927554891e-09
1.134066687e-08
-9.456139633e-09
-2.565829338e-08
2.041544549e-08
5.36544414e-08
-2.958173024e-09
-2.134104067e-08
7.846957823e-09
1.195095055e-08
-6.409391797e-09
-7.346123739e-09
3.337684245e-09
4.411378474e-09
-2.986971109e-09
-2.688393305e-09
1.602772786e-09
1.670077317e-09
-1.591654186e-09
-1.053586898e-09
9.199761445e-10
6.726799148e-10
-1.075074179e-09
-4.194075974e-10
5.193903735e-10
2.027238209e-10
-7.034263515e-10
2.660011266e-11
2.246700322e-10
-1.458980996e-10
-2.1846611e-10
1.926971081e-10
2.372448647e-10
-2.099176743e-10
-2.315033953e-10
2.036020274e-10
1.630863135e-10
-1.754999257e-10
-1.738552039e-10
1.315803531e-10
5.323982096e-11
-8.311543685e-11
-6.741349652e-11
4.671015303e-11
1.283251734e-11
-2.602829898e-11
-2.351085348e-11
1.547503582e-11
8.242165018e-12
-1.074227585e-11
-9.071478629e-12
1.10976566e-11
2.779241987e-11
-1.875052083e-11
-1.740639924e-11
3.753062015e-11
8.459827265e-11
-6.969745751e-11
-5.421387603e-11
1.133315699e-10
1.608390262e-10
-1.630780891e-10
-1.026448474e-10
2.124582345e-10
2.195321268e-10
-2.553498695e-10
-1.305366995e-10
2.866631607e-10
2.274720984e-10
-3.033131068e-10
-1.247641467e-10
3.056163098e-10
1.892726032e-10
-2.977128787e-10
-1.068702304e-10
2.854532845e-10
1.510751891e-10
-2.733807557e-10
-9.705745592e-11
2.64180631e-10
1.275766391e-10
-8.901193403e-11
-2.606164958e-10
2.13260087e-10
6.525834978e-11
-5.751012592e-11
-1.108767421e-10
1.942726546e-11
6.047158981e-11
-1.347511963e-11
-4.559380523e-11
1.65189217e-11
4.925898281e-11
-3.660235034e-12
-6.216910782e-11
3.307476943e-11
8.66178696e-11
-3.408618427e-12
-1.292132156e-10
7.503302344e-11
1.993673157e-10
2.190123601e-12
-3.211073253e-10
2.805923356e-10
5.514077335e-10
-2.972532468e-10
-8.441863123e-10
5.109735309e-10
9.802512057e-10
-7.492490821e-10
-1.301983857e-09
1.975330824e-09
3.674354476e-09
-3.190323915e-09
-1.221524403e-08
1.184643744e-08
2.32987029e-08
-1.202027697e-08
-2.682260601e-08
1.123901308e-08
2.266624646e-08
-9.797990275e-09
-1.631332285e-08
5.789626395e-09
1.105294471e-08
-5.146328331e-09
-7.435744483e-09
2.970012618e-09
5.016483548e-09
-2.742978509e-09
-3.362034261e-09
1.625022505e-09
2.237938936e-09
-1.506713142e-09
-1.520105501e-09
1.124470115e-09
1.113158884e-09
-1.012868516e-09
-9.002316012e-10
7.78033483e-10
5.251110736e-10
-7.19047267e-10
-1.259485105e-10
1.34418778e-10
-8.24439744e-11
-7.650932751e-11
9.621925819e-11
1.923564411e-10
-1.229361374e-10
-1.708281376e-10
1.470188366e-10
1.655603984e-10
-1.432423877e-10
-1.579377954e-10
1.37014684e-10
9.345076267e-11
-1.343280948e-10
-1.33224845e-10
1.244285278e-10
4.560751462e-11
-9.925501996e-11
-7.276289007e-11
6.583537953e-11
1.342549078e-11
-3.651323984e-11
-1.931556801e-11
1.858452648e-11
1.117674748e-11
-1.227639115e-11
-7.527579789e-12
1.519838242e-11
3.021212549e-11
-2.553641833e-11
-1.370983277e-11
4.125384544e-11
5.388890432e-11
-5.904091659e-11
-2.061501697e-11
7.512891368e-11
6.228623795e-11
-8.692759568e-11
-2.128953042e-11
9.40196069e-11
5.740465686e-11
-9.765372223e-11
-2.04352276e-11
9.944131301e-11
5.363788969e-11
-1.00673205e-10
-2.152449378e-11
1.023572854e-10
5.634839974e-11
-1.055136257e-10
-2.766386932e-11
1.114400863e-10
6.17972149e-11
-3.139766384e-11
-1.218074682e-10
1.717498525e-10
-8.873853819e-11
-5.858653458e-10
3.827919622e-10
4.355980353e-11
-8.39273711e-12
-2.401458356e-10
8.680300102e-12
1.489105477e-10
1.234802153e-11
-9.520980872e-11
-8.652170418e-13
7.214286526e-11
1.496394213e-11
-8.173306743e-11
-1.07744458e-11
1.625049104e-10
3.160051218e-11
-4.910994424e-10
-8.430813584e-11
1.678421477e-09
-6.784900632e-10
-4.074416812e-09
7.876169227e-10
4.862837594e-09
-1.632576095e-09
-3.806538358e-09
1.071513074e-09
3.437599838e-09
-1.980508583e-09
-5.416288801e-09
4.736669829e-09
1.295174112e-08
-6.696278081e-09
-2.354740713e-08
1.079340523e-08
2.809875832e-08
-7.95921047e-09
-2.448344581e-08
7.449419506e-09
1.773419698e-08
-4.313048951e-09
-1.192149154e-08
3.766411275e-09
7.933324917e-09
-2.031478647e-09
-5.339941289e-09
1.983385087e-09
3.634922157e-09
-1.029071958e-09
-2.506830035e-09
1.112778826e-09
1.778737081e-09
-6.028529896e-10
-1.329593111e-09
7.546263916e-10
1.055649915e-09
-4.548233831e-10
-8.549757241e-10
5.485939803e-10
5.843182362e-10
-3.293303487e-10
-1.661751179e-10
5.432295554e-11
4.304143636e-12
-5.131141296e-11
3.818639898e-11
1.478898122e-10
-1.102084986e-10
-1.170855954e-10
1.842307547e-10
1.722511637e-10
-2.34174526e-10
-1.375112255e-10
2.561982508e-10
1.525716315e-10
-2.53532725e-10
-1.171070383e-10
2.268757497e-10
8.448113543e-11
-1.799134434e-10
-6.886195615e-11
1.199882949e-10
2.203724166e-11
-6.541259307e-11
-1.803939857e-11
3.001071841e-11
5.272611119e-12
-1.312687187e-11
-3.465552687e-12
7.321506166e-12
4.825904567e-12
-6.443361281e-12
-1.447202217e-12
7.248847715e-12
5.201975223e-12
-8.345003051e-12
-1.060021388e-12
9.224732367e-12
5.007343421e-12
-9.806496314e-12
-9.655378125e-13
1.019858614e-11
5.233885101e-12
-1.05960582e-11
-1.216453749e-12
1.127558221e-11
6.764373529e-12
-1.261424463e-11
-2.499536348e-12
1.516652779e-11
1.2794142e-11
-2.00187933e-11
-8.136507704e-12
2.961597228e-11
3.101677952e-11
-2.922178141e-11
8.036539007e-11
-4.812276893e-11
3.861279797e-11
-5.131044272e-12
-1.322811372e-09
2.049244827e-09
4.07206949e-11
-5.590061953e-11
-2.626850534e-09
5.91540858e-12
2.692904378e-09
-2.05276094e-10
-2.46446565e-09
-1.329736054e-11
2.754275273e-09
-3.042414673e-10
-4.714711018e-09
1.093214212e-09
7.875070783e-09
-1.067829293e-09
-9.553083114e-09
1.939069828e-09
9.510328956e-09
-1.49184979e-09
-9.1991142e-09
1.863574039e-09
1.007468239e-08
-2.140314239e-09
-1.392204999e-08
3.771888584e-09
2.14608508e-08
-3.906461814e-09
-2.856673442e-08
6.548474168e-09
2.927325829e-08
-3.944419977e-09
-2.340789439e-08
4.296413403e-09
1.557567452e-08
-1.924048533e-09
-9.41242889e-09
1.878315056e-09
5.593792158e-09
-8.073441688e-10
-3.403233998e-09
8.4122617e-10
2.119876318e-09
-3.5484678e-10
-1.332361227e-09
3.881267371e-10
8.452262218e-10
-1.367479321e-10
-5.63542099e-10
2.267101521e-10
4.253720484e-10
-6.148836669e-11
-3.762137014e-10
2.094493508e-10
3.676225275e-10
-5.803851472e-11
-3.46284529e-10
1.594718321e-10
2.207057641e-10
-4.684644153e-11
-7.206472654e-11
4.654376233e-11
1.445339819e-11
-4.707826087e-11
2.61883438e-11
7.029665177e-11
-6.760182051e-11
-3.848844584e-11
1.015444901e-10
7.467227911e-11
-1.213565027e-10
-2.163290934e-11
1.164275871e-10
6.050779675e-11
-1.065281591e-10
-1.692072883e-11
9.254713626e-11
3.741195772e-11
-7.318380732e-11
-1.205051142e-11
4.889468318e-11
9.389023838e-12
-2.674501876e-11
-2.265338283e-12
1.266347296e-11
1.753893161e-12
-5.924086803e-12
-6.059088088e-13
3.128274293e-12
5.817401711e-13
-1.906995408e-12
-2.606539584e-13
1.278322682e-12
2.986406239e-13
-9.083570363e-13
-1.074403468e-13
6.842389697e-13
2.479726326e-13
-5.715103395e-13
-1.562286613e-13
5.92554841e-13
6.163651232e-13
-8.486166615e-13
-8.28567171e-13
1.523434021e-12
2.037350458e-12
-2.853210698e-12
-2.59228808e-12
5.244427647e-12
8.221639891e-12
-1.012992756e-11
-9.742355179e-12
2.228775888e-11
3.172564e-11
-3.195217435e-11
9.838669975e-11
-4.944059984e-11
-1.028848044e-10
1.463985353e-10
-4.459939851e-10
4.995466622e-10
-6.05393784e-11
8.219060437e-11
-5.090778314e-10
9.433862864e-11
4.227203538e-10
-7.205415159e-12
-2.403270915e-10
3.958101858e-11
1.274667581e-10
-1.205172764e-11
-1.123136829e-10
6.827051901e-11
1.953019454e-10
-5.377255942e-11
-3.701708119e-10
2.216587126e-10
6.886367232e-10
-2.821371398e-10
-1.460281023e-09
5.366393978e-10
3.974450727e-09
-3.419778072e-10
-1.070387735e-08
2.142320158e-09
1.873208233e-08
1.967354795e-10
-1.993789235e-08
2.167367486e-09
1.502554895e-08
-2.041440276e-10
-9.35773524e-09
8.97428642e-10
5.429491333e-09
-1.611759172e-10
-3.216757731e-09
3.842539368e-10
2.034257869e-09
-1.247013394e-10
-1.345875112e-09
1.888155101e-10
8.833519662e-10
-1.136796356e-10
-5.470234289e-10
7.555861144e-11
3.08897418e-10
-7.474021119e-11
-1.588568776e-10
2.299307579e-11
8.02986347e-11
-2.325463012e-11
-4.762454687e-11
1.232234132e-11
3.607216736e-11
-1.065822791e-11
-2.953544518e-11
6.51992968e-12
2.000177797e-11
-5.146972363e-12
-8.313713926e-12
6.337578501e-11
-4.022779834e-12
-8.442548416e-11
4.414120432e-11
2.114775117e-11
-1.899424475e-11
-3.135394596e-17
-6.527482135e-21
3.859063937e-15
-4.651446822e-20
-1.035623706e-14
4.191189865e-15
4.14215746e-12
-1.972120989e-15
-6.786052736e-12
1.654941546e-12
4.941108254e-12
-1.536006101e-12
-6.601742642e-12
-3.559861603e-13
2.760334403e-13
-7.087735467e-13
-3.276262024e-13
5.769871869e-13
8.891436135e-14
-3.513836981e-13
3.26401183e-15
2.052693674e-13
2.89886241e-14
-1.189074346e-13
-4.377144337e-15
7.070253534e-14
2.224947194e-14
-4.671129977e-14
-3.481839516e-14
6.255460199e-14
2.560844443e-13
-2.212249384e-13
-5.965997303e-13
8.265240292e-13
1.472379703e-12
-2.388940094e-12
-2.574299116e-12
5.068551422e-12
3.177244105e-12
-8.2634861e-12
-1.939574483e-12
1.178504049e-11
1.00320786e-11
-1.908387924e-11
1.323427102e-12
4.602258308e-11
2.026913465e-11
1.655682944e-11
1.736688809e-10
-1.060458948e-10
-8.126835613e-11
3.749107687e-11
-3.070956219e-10
3.026684865e-10
-2.139018518e-11
3.111766473e-11
-3.452599637e-10
-2.46782097e-11
3.995336061e-10
4.087625024e-11
-4.526452123e-10
-6.957097267e-12
5.245867627e-10
3.963354719e-11
-6.237523688e-10
1.531205043e-11
7.691250903e-10
1.588049062e-11
-1.07113983e-09
1.404821281e-10
1.838115517e-09
-2.053538705e-11
-4.030773844e-09
-3.949867567e-10
9.942331542e-09
6.476685401e-10
-1.928151858e-08
-2.145479623e-09
2.450402099e-08
3.581737129e-09
-2.250352804e-08
-1.214005495e-09
1.721167017e-08
2.40613275e-09
-1.206506856e-08
-4.838899197e-10
8.200797674e-09
1.094682337e-09
-5.647432006e-09
-2.354704729e-10
4.079004112e-09
5.325747343e-10
-3.118755184e-09
-1.516817215e-10
2.466643799e-09
3.236421434e-10
-1.925990019e-09
-8.694399025e-11
1.399716074e-09
1.938717938e-10
-8.883917828e-10
-2.703715799e-11
4.615181718e-10
7.080372272e-11
-1.870627795e-10
-9.548803926e-12
6.352836252e-11
1.0810486e-11
-2.293655703e-11
-2.94938579e-12
1.044130899e-11
1.877955523e-12
-2.885157931e-12
1.064919395e-10
-1.866147038e-12
3.625553678e-10
-3.400858004e-13
-7.182109853e-17
-1.423452615e-13
2.721816098e-14
1.077559491e-13
2.235977169e-14
-6.591248831e-14
6.264321351e-15
2.348548853e-14
1.179807027e-11
-6.300853101e-15
-1.925185518e-11
7.690356649e-12
9.881794475e-12
-8.567830765e-12
-1.126372042e-11
7.534719865e-12
-1.256733398e-12
-7.915609367e-12
3.420842549e-12
4.311921252e-12
-2.279412715e-13
-2.192254889e-12
7.874814989e-13
9.773252326e-13
-3.943850026e-14
-3.762511186e-13
1.498499879e-13
1.411538007e-13
-3.0143425e-14
-1.126078517e-13
8.013658722e-13
8.132492902e-13
-2.59053805e-13
-7.676595011e-12
8.494608193e-12
3.42757394e-11
-1.220170899e-12
-7.887017852e-11
4.601680317e-12
1.194023945e-10
-2.780792703e-12
-1.336889265e-10
5.567799022e-12
1.197457443e-10
-7.704769893e-12
-9.631819681e-11
1.067102527e-11
8.190954188e-11
-1.720259097e-11
1.392847938e-11
8.944219175e-11
-8.163931682e-11
-6.394973066e-11
-3.549964322e-10
4.371735972e-10
-6.903622313e-11
7.890957634e-11
-6.034045666e-10
-1.397104257e-10
7.948085098e-10
1.678720759e-10
-1.007286733e-09
-2.272631464e-10
1.228097793e-09
2.623217629e-10
-1.442735676e-09
1.51746734e-10
1.711066303e-09
1.363272124e-10
-2.150246477e-09
6.204001826e-10
2.687155949e-09
-1.277349892e-10
-3.294573359e-09
2.928848432e-10
3.952869377e-09
-2.712853696e-10
-5.663309322e-09
-3.552934267e-09
1.009630634e-08
1.447054651e-09
-1.524179257e-08
-3.262977791e-09
1.684000333e-08
3.006141089e-09
-1.487198574e-08
-1.6507002e-09
1.145400574e-08
2.057878964e-09
-8.141373293e-09
-7.659006718e-10
5.556649881e-09
1.062572552e-09
-3.744092555e-09
-4.008001378e-10
2.529930445e-09
5.333118531e-10
-1.716932666e-09
-2.204926606e-10
1.154942823e-09
2.766005075e-10
-7.513761539e-10
-9.184336469e-11
4.598346022e-10
1.296529784e-10
-2.613505096e-10
-2.197241528e-11
1.418288081e-10
4.617904567e-11
-7.639955174e-11
-6.747914201e-12
3.459824418e-11
1.749390399e-11
7.349736605e-12
-2.619551961e-10
-1.511422329e-10
5.316528154e-10
3.687276e-10
-2.194227197e-10
-2.887549724e-10
2.23702593e-10
2.671350779e-10
-1.011749029e-10
-2.488213346e-10
1.437133899e-10
2.16965422e-10
-5.531262594e-11
-1.823114386e-10
9.224830051e-11
1.441129685e-10
-2.846795135e-11
-1.143615139e-10
5.370772841e-11
9.544658994e-11
-2.560421248e-11
-8.502171828e-11
4.401396192e-11
8.463240666e-11
-1.098618985e-11
-7.402165442e-11
7.270585561e-11
5.832813557e-11
-3.888823665e-11
-8.980592313e-11
2.123519967e-10
1.579112773e-10
-1.109239886e-10
-2.436427079e-10
4.71962394e-10
3.407003685e-10
-9.806526145e-11
-4.08007953e-10
3.622987062e-10
4.126997043e-10
2.348539622e-11
-3.674105712e-10
2.982015264e-11
2.803413711e-10
1.4850048e-11
-2.131741743e-10
3.099296979e-11
2.10558642e-10
-2.206071171e-11
-2.770286845e-10
5.93478949e-11
2.712719304e-10
-2.047012215e-11
-7.83457543e-12
1.786242836e-10
-1.875130377e-10
2.716667019e-10
-7.200753313e-11
8.105002169e-11
-2.821920724e-10
-1.505936965e-10
3.441095744e-10
1.163444935e-10
-4.312123338e-10
-2.321726391e-10
4.984767914e-10
1.93124022e-10
-5.00701181e-10
-1.912894714e-10
4.305724574e-10
1.861000309e-10
-3.354120988e-10
-1.15803099e-10
2.787576471e-10
1.307223747e-10
-3.12212443e-10
5.049703087e-11
5.069921823e-10
1.387305424e-10
-8.802522543e-10
-4.084471606e-10
1.368380742e-09
4.167557472e-10
-1.639929907e-09
-1.456388871e-09
1.825062683e-09
6.643993164e-10
-2.184471535e-09
-1.667908831e-09
2.617822078e-09
7.872471734e-10
-2.886646878e-09
-1.178606001e-09
2.840242624e-09
7.889558441e-10
-2.497421069e-09
-6.880922066e-10
1.994173515e-09
6.462906855e-10
-1.490067671e-09
-3.8177126e-10
1.078556521e-09
4.5580241e-10
-7.463618277e-10
-2.091945926e-10
4.988285387e-10
2.86324212e-10
-3.312999159e-10
-1.265749839e-10
2.351247646e-10
1.874574727e-10
-1.957316664e-10
-7.952823641e-11
1.523119161e-10
8.661042008e-11
-1.299473247e-10
-4.591776926e-10
8.339433779e-11
2.07638798e-10
-2.101359969e-12
-1.3210006e-10
-1.036587929e-11
7.100154791e-11