/*--------------------------------*- C++ -*----------------------------------*\
| =========                 |                                                 |
| \\      /  F ield         | OpenFOAM: The Open Source CFD Toolbox           |
|  \\    /   O peration     | Version:  2.1.x                                 |
|   \\  /    A nd           | Web:      www.OpenFOAM.org                      |
|    \\/     M anipulation  |                                                 |
\*---------------------------------------------------------------------------*/
FoamFile
{
    version     2.0;
    format      ascii;
    class       volVectorField;
    location    "0.1";
    object      Uf;
}
// * * * * * * * * * * * * * * * * * * * * * * * * * * * * * * * * * * * * * //

dimensions      [0 1 -1 0 0 0 0];

internalField   nonuniform List<vector> 
2828
(
(-0.36154279 0 -0.09913192871)
(-0.3026918634 0 -0.06773170483)
(-0.264144539 0 -0.03039958575)
(-0.4424259156 0 0.009097518273)
(-0.2947689198 0 0.03788110738)
(-1.020272888 0 -0.5186002812)
(-1.218382333 0 -0.5247177649)
(-1.197967002 0 -0.4172571338)
(-0.996129168 0 -0.286401456)
(-0.3827282467 0 -0.1048833604)
(-0.3240040445 0 -0.07316250372)
(-0.2609330633 0 -0.03385816622)
(-0.4741861507 0 0.004361491748)
(-0.3217041836 0 0.04404962277)
(-1.390322832 0 0.3017989268)
(-1.147400907 0 0.4483441952)
(-0.9137504672 0 0.3315046199)
(-0.4072674355 0 -0.3050080563)
(-0.6920246298 0 -0.4311666199)
(-1.048686934 0 -0.5605401199)
(-1.170276471 0 -0.5353019804)
(-1.131243971 0 -0.4130100393)
(-1.063274705 0 -0.3062034779)
(-0.4062077529 0 -0.1160945829)
(-0.343092341 0 -0.0797779358)
(-0.2491803293 0 -0.03903889622)
(-0.4835964626 0 -0.002160256075)
(-0.4345283292 0 0.03480366045)
(-1.378198014 0 0.4010911868)
(-1.157742523 0 0.5730463041)
(-0.8114926713 0 0.2993630912)
(-0.5301418495 0 0.2563326206)
(-0.4764922824 0 0.2830207207)
(-0.3052394726 0 -0.277524171)
(-0.4692795046 0 -0.3525892347)
(-0.7885218666 0 -0.5095078407)
(-1.019508453 0 -0.5952648296)
(-1.046260166 0 -0.5295157111)
(-1.145670387 0 -0.4508807935)
(-1.175070348 0 -0.3452475795)
(-0.4246081939 0 -0.1357574096)
(-0.3795237887 0 -0.08972957494)
(-0.2602500252 0 -0.04588219415)
(-0.4608454136 0 -0.006529575396)
(-0.3847555208 0 0.05869763721)
(-0.2529657105 0 0.06159983619)
(-0.20077899 0 0.06129705052)
(-0.4340724996 0 0.2272677457)
(-0.4366961243 0 0.3139982476)
(-0.4630865782 0 0.3581222124)
(-0.4385307036 0 0.3309228456)
(-0.361153518 0 0.2730393088)
(-0.2662975357 0 -0.2596035764)
(-0.3593565985 0 -0.3175174076)
(-0.6119489653 0 -0.4639399547)
(-0.855358436 0 -0.5849420288)
(-0.9377422359 0 -0.6039656705)
(-0.9763604235 0 -0.558316749)
(-1.233651945 0 -0.5412280017)
(-1.326834488 0 -0.4066844509)
(-0.446178087 0 -0.136237527)
(-0.4227752916 0 -0.1021723425)
(-0.2762226466 0 -0.03568771273)
(-0.3811086724 0 0.001092577955)
(-0.406556496 0 0.05759407119)
(-0.239319313 0 0.067498534)
(-0.231748311 0 0.161221637)
(-0.352636741 0 0.3029650626)
(-0.4219589678 0 0.3735017801)
(-0.4702070522 0 0.4136239396)
(-0.4616666148 0 0.4011172284)
(-0.3811471737 0 0.3252671229)
(-0.2849561542 0 0.2598433288)
(-0.3234141695 0 -0.3407189718)
(-0.430108944 0 -0.429390263)
(-0.6590782423 0 -0.5818837873)
(-0.8748133858 0 -0.6860224637)
(-0.9797362045 0 -0.7013086946)
(-0.9026711059 0 -0.6154888323)
(-0.9208971131 0 -0.600659954)
(-1.338302155 0 -0.6842421826)
(-1.588680089 0 -0.525143959)
(-0.5754566856 0 -0.02082186039)
(-0.4530919383 0 -0.1190830525)
(-0.3107288269 0 0.01116429021)
(-0.3051646048 0 0.01655229869)
(-0.4866427304 0 0.08774842003)
(-0.2822881171 0 0.2251150058)
(-0.3118415461 0 0.2945700847)
(-0.3633650674 0 0.3393556818)
(-0.4170543676 0 0.3823070236)
(-0.4560031915 0 0.4157246862)
(-0.4501563348 0 0.4138321406)
(-0.3900517004 0 0.3624230568)
(-0.3117848395 0 0.3038466888)
(-0.270080152 0 0.3034446363)
(-0.5573776614 0 -0.6946869097)
(-0.6547914599 0 -0.7624859711)
(-0.817786068 0 -0.8484927615)
(-1.003392235 0 -0.923329399)
(-1.113693495 0 -0.9131189209)
(-1.081253011 0 -0.7946938232)
(-0.9475734642 0 -0.6407501503)
(-0.8728302787 0 -0.611652571)
(-1.330751727 0 -0.8373494738)
(-1.974997593 0 -0.7626795575)
(-0.8231699683 0 0.1443553697)
(-0.4814865799 0 -0.1487296886)
(-0.3960307958 0 0.0799294495)
(-0.2974114374 0 0.0421942494)
(-0.3568075138 0 0.1413478482)
(-0.3449252898 0 0.2956073429)
(-0.3530062244 0 0.3115160063)
(-0.3725775397 0 0.3305246873)
(-0.3959426141 0 0.3539595158)
(-0.4138801894 0 0.3786525527)
(-0.4065308058 0 0.3874929921)
(-0.3707945258 0 0.370226706)
(-0.3391780292 0 0.3552294365)
(-0.3210002427 0 0.3577091347)
(-0.7288521764 0 -1.043958796)
(-0.7644954617 0 -1.030149732)
(-0.8724062227 0 -1.06115595)
(-1.023954762 0 -1.120243637)
(-1.113658728 0 -1.099580283)
(-1.109170833 0 -0.9754072356)
(-1.083740266 0 -0.833008898)
(-1.055071794 0 -0.7028888751)
(-1.115833119 0 -0.6910122852)
(-1.020745631 0 -0.7751416482)
(-1.965420405 0 -1.045362494)
(-1.154562849 0 0.2848709621)
(-0.5226701949 0 -0.2046472024)
(-0.5712396945 0 0.103528321)
(-0.3991320983 0 0.1231422757)
(-0.4321005915 0 0.3003932397)
(-0.4096868781 0 0.3361225584)
(-0.3906491655 0 0.3329689464)
(-0.3805144485 0 0.3291929598)
(-0.3713818032 0 0.3293216527)
(-0.3607293325 0 0.3369538357)
(-0.3477573118 0 0.3503223405)
(-0.3390820371 0 0.3674315438)
(-0.344653044 0 0.3909453313)
(-0.3509119113 0 0.4077667249)
(-0.3396977696 0 0.4058018763)
(-0.7093720336 0 -1.096621522)
(-0.7401771722 0 -1.059226066)
(-0.8385533761 0 -1.091795528)
(-0.9341282473 0 -1.129523714)
(-0.9723413668 0 -1.083828505)
(-1.022042213 0 -1.016201869)
(-1.114455813 0 -0.9503089055)
(-1.66830976 0 -1.263797306)
(-3.117121596 0 -1.823824443)
(-0.5411801903 0 -0.2459792913)
(-0.560664725 0 -0.337484265)
(-0.578066819 0 -0.2675718058)
(-0.5708551177 0 -0.2475429716)
(-0.7968466175 0 -0.1551866427)
(-0.6019771618 0 0.3618224585)
(-0.5688291486 0 0.4595527771)
(-0.5016425449 0 0.4254784661)
(-0.4526725234 0 0.3867234403)
(-0.4078672777 0 0.3524986383)
(-0.3581512005 0 0.3248291203)
(-0.3161374318 0 0.3153305266)
(-0.2991340601 0 0.3307328229)
(-0.3088000882 0 0.3644845034)
(-0.331239239 0 0.4007318829)
(-0.3473078712 0 0.4214281439)
(-0.3426974126 0 0.4163507337)
(-0.3184381005 0 0.3942479043)
(-0.5596464243 0 -0.9686417939)
(-0.5748910127 0 -0.97334464)
(-0.595579561 0 -0.9523154491)
(-0.6776999106 0 -0.9952036572)
(-0.7688881985 0 -1.061810979)
(-0.8467071511 0 -1.096713422)
(-0.9628598819 0 -1.127572071)
(-1.374946861 0 -1.43091373)
(-2.778339442 0 -2.774756934)
(-3.721428277 0 -2.686864506)
(-1.186365983 0 -0.4333476152)
(-1.208106848 0 -1.043487742)
(-1.258214579 0 -0.8936424692)
(-0.8179951272 0 -0.4043871441)
(-0.9357256406 0 -0.4232592911)
(-0.7417653422 0 0.5539536439)
(-0.6745657502 0 0.5746596697)
(-0.6170260837 0 0.5309418738)
(-0.5577481667 0 0.4756828201)
(-0.4637453323 0 0.4078473848)
(-0.3562650714 0 0.3501748896)
(-0.2907586733 0 0.3287013612)
(-0.2748758832 0 0.3370788814)
(-0.2861084251 0 0.3609541895)
(-0.3061615733 0 0.3868973812)
(-0.3188430629 0 0.3998014564)
(-0.3111239103 0 0.3891667911)
(-0.2830842596 0 0.3636015538)
(-0.4285136106 0 -0.8091782149)
(-0.4717027158 0 -0.8840866845)
(-0.5019979485 0 -0.9215060589)
(-0.5439648137 0 -0.9403077996)
(-0.6319677866 0 -1.01774396)
(-0.7435658877 0 -1.140313906)
(-0.8852037033 0 -1.26729226)
(-1.608464507 0 -2.296605563)
(-2.427172584 0 -3.771250073)
(-4.789015891 0 -4.151298817)
(-1.680259641 0 -0.9382424359)
(-1.617204071 0 -1.653259658)
(-1.596714989 0 -1.303545724)
(-1.539405669 0 -0.9351749499)
(-0.9747030822 0 -0.5016739817)
(-0.7926010401 0 0.6309199762)
(-0.7837923175 0 0.676383756)
(-0.7842461791 0 0.6640542788)
(-0.7000126231 0 0.5935893475)
(-0.5093206221 0 0.4878698572)
(-0.3621422853 0 0.4229353924)
(-0.2977970846 0 0.3818243217)
(-0.2739908774 0 0.3592878832)
(-0.2731048331 0 0.3573073628)
(-0.2808623506 0 0.363683631)
(-0.2836109899 0 0.3648622591)
(-0.2721123822 0 0.3563229449)
(-0.2520135093 0 0.3579094392)
(-0.3101559896 0 -0.725807355)
(-0.3864969754 0 -0.8487472897)
(-0.4637265135 0 -0.9986445283)
(-0.5600651524 0 -1.15336861)
(-0.5792403811 0 -1.157610391)
(-0.6168651948 0 -1.168270631)
(-0.699176527 0 -1.286645041)
(-0.6985077621 0 -1.198541205)
(-0.8905918365 0 -1.715008474)
(0.6866785805 0 -2.694885536)
(-1.460336798 0 -2.241955394)
(-1.447095494 0 -1.892278907)
(-1.460761719 0 -1.478135751)
(-1.51320332 0 -1.034565659)
(-0.9005874069 0 -0.4531682097)
(-0.8257594456 0 0.6634900223)
(-0.986232921 0 0.7785501617)
(-1.017044535 0 0.7947071026)
(-0.7492144838 0 0.6810081139)
(-0.5023700483 0 0.6204296252)
(-0.4095084555 0 0.5550541071)
(-0.3383079789 0 0.4604274824)
(-0.2931791821 0 0.3940628391)
(-0.2751216886 0 0.364363916)
(-0.2701842632 0 0.354822387)
(-0.266352739 0 0.3569725867)
(-0.2603527451 0 0.3819763484)
(-0.2503693409 0 0.4227890685)
(-0.228506159 0 0.4337935299)
(-0.09001828797 0 -0.375145565)
(-0.1148827036 0 -0.494742154)
(-0.1785451561 0 -0.8018166451)
(-0.3088161199 0 -1.330185208)
(-0.5323805836 0 -1.597659208)
(-0.3117779542 0 -0.5507963839)
(-0.2240922639 0 -0.6023158786)
(-0.4547348923 0 -1.008252237)
(-0.9477692211 0 -2.098230028)
(-1.247260249 0 -2.636877888)
(-1.337186083 0 -2.53326573)
(-1.290328804 0 -2.104246712)
(-1.215974725 0 -1.616952589)
(-1.045141401 0 -0.9292171308)
(-0.7692045417 0 -0.5451966863)
(-1.412197348 0 0.7830301341)
(-1.480383089 0 1.041345681)
(-1.125214549 0 0.9699048024)
(-0.6706640915 0 0.9072839113)
(-0.5796217809 0 0.8363810693)
(-0.484563211 0 0.6850120481)
(-0.3937111176 0 0.5408850335)
(-0.3393545978 0 0.4556787287)
(-0.3175371284 0 0.4219063227)
(-0.3184793796 0 0.4373920358)
(-0.3280271535 0 0.5110822197)
(-0.3139529382 0 0.5701336604)
(-0.2702379901 0 0.5565298644)
(-0.2133963359 0 0.4820778185)
(-0.04037005263 0 -0.3695991511)
(-0.02611416637 0 -0.3651456957)
(0.01466736849 0 -0.3855254132)
(0.08918102764 0 -0.4476582141)
(0.22778118 0 -0.5190284216)
(0.08371718001 0 -0.6407895563)
(-0.2513820797 0 -0.8350908678)
(-0.2989735253 0 -0.9067683478)
(-0.5959626539 0 -1.815897084)
(-0.9600955716 0 -2.674019714)
(-1.233014812 0 -2.979673577)
(-1.316201733 0 -2.702192778)
(-1.305599576 0 -2.283092366)
(-1.257316223 0 -1.863256124)
(-1.0077788 0 -1.203176864)
(-0.7284104052 0 -0.7790775489)
(-0.900482807 0 0.5566393491)
(-0.6748925869 0 0.8143098583)
(-0.8606059827 0 1.230412144)
(-0.791832048 0 1.182631076)
(-0.6538074016 0 0.9686511513)
(-0.5347733123 0 0.7482493696)
(-0.4707742034 0 0.6333662034)
(-0.4618901323 0 0.6164365141)
(-0.5061168912 0 0.7309683027)
(-0.5403129468 0 0.9341943628)
(-0.4882297125 0 0.9862869492)
(-0.3788844147 0 0.8640989538)
(-0.2680496863 0 0.6772396425)
(-0.1779493208 0 0.4923048755)
(-0.03186344704 0 -0.3332752159)
(-0.03712374419 0 -0.4010372431)
(-0.05025651465 0 -0.4234306664)
(-0.06848362912 0 -0.4998105651)
(-0.1935240852 0 -0.9093270953)
(-0.2331167015 0 -1.158969359)
(-0.2361634196 0 -1.458335277)
(-0.3826063588 0 -2.302984053)
(-0.665956118 0 -3.115690586)
(-0.8895837414 0 -3.382162884)
(-0.971520544 0 -3.087169873)
(-1.060153082 0 -2.830969642)
(-1.285725612 0 -2.815489109)
(-1.637136158 0 -2.812928195)
(-1.517395771 0 -2.040879095)
(-0.7254746531 0 -0.9511301702)
(-0.8657404394 0 0.2933114348)
(-0.7489317349 0 0.969053351)
(-0.9739552883 0 1.47454487)
(-0.9051193723 0 1.399129712)
(-0.6731526549 0 0.947994631)
(-0.5999549245 0 0.7603599437)
(-0.722144263 0 0.950862344)
(-0.9889397241 0 1.677548325)
(-0.8998737864 0 1.880700086)
(-0.6939729731 0 1.687071351)
(-0.4865824232 0 1.344455588)
(-0.3015684615 0 0.9337028686)
(-0.1726791378 0 0.5995193231)
(-0.09658076736 0 0.3839109138)
(0.5290408938 0 -1.420151358)
(0.1106642718 0 -0.3694398245)
(-0.07391493297 0 -0.3252475877)
(-0.119288443 0 -0.4071540029)
(-0.2130607966 0 -0.6032671612)
(-0.3373622113 0 -0.8271552004)
(-0.1421444925 0 -1.245091338)
(-0.1838130174 0 -2.495927946)
(-0.360816976 0 -3.240497326)
(-0.4066219091 0 -3.143222058)
(-0.4431071476 0 -3.020469645)
(-0.533559196 0 -3.27822588)
(-0.7060445281 0 -3.946325096)
(-0.9996833924 0 -4.903758417)
(-1.629536368 0 -5.639741116)
(-0.3808332352 0 -2.181836918)
(-0.7873629574 0 0.6200757592)
(-0.3055581589 0 0.02936967383)
(-0.5413884381 0 1.349128885)
(-0.546929726 0 0.310062109)
(-0.4640958968 0 0.06804955648)
(-0.8110199853 0 0.9100428624)
(-0.6062699287 0 2.313350758)
(-0.4554034035 0 2.14177588)
(-0.3409368626 0 1.792389054)
(-0.2525740899 0 1.42847065)
(-0.1619085233 0 1.007811077)
(-0.06912466695 0 0.5721264531)
(-0.01203604435 0 0.2966804605)
(0.01187516289 0 0.1951823112)
(0.1284837697 0 -1.089571144)
(0.1048575699 0 -1.277729931)
(0.1172605725 0 -1.408959655)
(0.1395767116 0 -1.645180463)
(0.1616777863 0 -1.853490915)
(0.1523858332 0 -1.598321651)
(0.2206043621 0 -1.685239385)
(0.3185401506 0 -2.356247357)
(0.3358829672 0 -2.634528075)
(0.2995853825 0 -2.445771948)
(0.2534880037 0 -2.146930042)
(0.2277634177 0 -1.954462263)
(0.2323756007 0 -1.899848192)
(0.2842678813 0 -2.095009783)
(0.4154311754 0 -2.693108857)
(0.398317852 0 -1.969578721)
(0.1820719966 0 0.4833058546)
(0.3535694299 0 1.715987274)
(-0.3781349704 0 0.7408940027)
(-0.6254133404 0 0.399234545)
(-0.5210388474 0 0.3842044893)
(0.7097950218 0 0.9034904865)
(0.3260394814 0 0.8283414219)
(0.3811358295 0 0.6074762986)
(0.1465109153 0 0.3848384172)
(0.0461115764 0 0.2737951375)
(0.02134783311 0 0.2388992041)
(0.0172650988 0 0.2204310494)
(0.02588294889 0 0.1982965342)
(0.02399944649 0 0.1782534744)
(0.1181961402 0 -0.7762027446)
(0.1569851263 0 -0.8798394563)
(0.1956453515 0 -0.9318871204)
(0.1624577555 0 -0.8746177651)
(-0.05298202831 0 -0.7479261758)
(-0.1826819408 0 -0.7323759791)
(-0.100619828 0 -0.8107099842)
(0.2300287354 0 -1.468891243)
(0.3884110094 0 -2.09774326)
(0.4054513175 0 -2.177065983)
(0.3821435388 0 -1.970142516)
(0.35909755 0 -1.731156695)
(0.3671403863 0 -1.602903908)
(0.422934154 0 -1.581183097)
(0.5176247502 0 -1.466716077)
(0.2809407328 0 -0.00101897065)
(0.2120753061 0 0.2677993937)
(0.407865148 0 0.4929554023)
(0.3994285435 0 0.5942060329)
(0.3467552219 0 0.5268128975)
(0.3103708036 0 0.5274017073)
(0.2696172391 0 0.5264427114)
(0.7858418484 0 0.5602524143)
(0.7233377419 0 0.5406167738)
(0.6098403549 0 0.4944073285)
(0.2699166971 0 0.3892055302)
(-0.07093511814 0 0.464826685)
(-0.04660586168 0 0.3434222289)
(0.005377744443 0 0.2173598606)
(0.03947521199 0 0.2381003877)
(0.1454444671 0 -0.5287065645)
(0.1801553345 0 -0.5742929332)
(0.2202816613 0 -0.6177863494)
(0.2520868125 0 -0.6454252603)
(0.2616963798 0 -0.6752275683)
(-0.03081274672 0 -0.6435094832)
(0.09975179365 0 -0.6679873596)
(0.2594242184 0 -0.7967372263)
(0.3045104351 0 -1.001103489)
(0.344388147 0 -1.098234365)
(0.382553247 0 -1.063683946)
(0.4242166738 0 -0.9516449656)
(0.4944846014 0 -0.8009323993)
(0.5166607851 0 -0.5996915515)
(0.2583568281 0 -0.3722273954)
(0.2363899081 0 -0.07083261391)
(0.5193613256 0 0.4223798582)
(0.3688439856 0 0.379202421)
(0.327049005 0 0.3847109762)
(0.3104156834 0 0.3989088063)
(0.283004959 0 0.4068490736)
(0.4953760609 0 0.440741999)
(0.729009158 0 0.5307883467)
(0.7377602973 0 0.5670295143)
(0.5485385278 0 0.5048104982)
(0.237261997 0 0.668365541)
(0.2403237244 0 0.5682956716)
(0.6413461905 0 2.186192398)
(0.487342501 0 1.8300613)
(0.1972213619 0 -0.5900223935)
(0.2461473898 0 -0.7171359187)
(0.2906210788 0 -0.8515767117)
(0.3638694284 0 -1.038435023)
(0.4745172151 0 -1.23986153)
(0.5976297136 0 -1.280957483)
(0.5057671921 0 -0.7732049996)
(0.3144797263 0 -0.5661668346)
(0.1786943643 0 -0.6378780192)
(-0.1374492674 0 -0.6858985918)
(0.0737044736 0 -0.6309567122)
(0.3757516145 0 -0.4758592041)
(0.4187636186 0 -0.4193691328)
(0.3814176103 0 -0.1819604792)
(0.2069210421 0 -0.1507186207)
(0.2334891327 0 -0.0749499862)
(0.453511818 0 0.3228699906)
(0.3744844927 0 0.3191927158)
(0.3760430333 0 0.3722670314)
(0.3797738879 0 0.4186389623)
(0.3600223432 0 0.43650834)
(0.4404723136 0 0.446997665)
(0.7471194765 0 0.5571126258)
(0.772560395 0 0.5976224073)
(0.5694952223 0 0.535994077)
(0.2488202672 0 0.6167682922)
(0.2016694823 0 0.7139622761)
(0.7457965365 0 1.556780584)
(0.6298283206 0 1.531568233)
(0.2697427134 0 -0.6622567167)
(0.3286577989 0 -0.7944990734)
(0.3666472543 0 -0.8258892155)
(0.4528047429 0 -0.9024442785)
(0.5904118596 0 -0.9641010418)
(0.6747054111 0 -0.8352263267)
(0.5824729181 0 -0.6614763543)
(0.4454010883 0 -0.585419122)
(0.4025060651 0 -0.6779719103)
(0.8727018481 0 -1.174846566)
(0.9594127703 0 -0.4978258086)
(0.3864100599 0 -0.3004201174)
(0.3723579742 0 -0.294817442)
(0.1495669417 0 -0.1685658818)
(0.1666388162 0 -0.1088279931)
(0.2037946041 0 -0.06226449992)
(0.3062894206 0 0.1636526559)
(0.3861160465 0 0.2867664331)
(0.4222060453 0 0.3666038187)
(0.4281694403 0 0.4184412479)
(0.4025970524 0 0.434804222)
(0.3929563315 0 0.4311637805)
(0.6402462952 0 0.5255003583)
(0.6435762355 0 0.5451649231)
(0.3137082687 0 0.387411013)
(-0.09406495806 0 0.4900216579)
(-0.1738025755 0 0.5760807057)
(0.3400658137 0 0.7757071691)
(0.3576357551 0 -0.7086426199)
(0.4400111273 0 -0.7717326736)
(0.509094299 0 -0.7420115275)
(0.619818755 0 -0.7119041738)
(0.6796667032 0 -0.7475173593)
(0.6530974697 0 -0.7786796857)
(0.6081365962 0 -0.7639461915)
(0.7374643589 0 -0.8643063551)
(1.090890189 0 -0.8940340593)
(0.8046265248 0 -0.3132240932)
(0.378629439 0 -0.2799916625)
(0.337062215 0 -0.2575558693)
(0.1282198477 0 -0.1600103436)
(0.1377213966 0 -0.09919297406)
(0.175845407 0 -0.06852183847)
(0.2052794698 0 0.0420599918)
(0.3637569813 0 0.2401851514)
(0.4215485121 0 0.3315903454)
(0.4267547089 0 0.3809143068)
(0.3904411185 0 0.3898910513)
(0.3385275531 0 0.3900287908)
(0.3952110849 0 0.4379743347)
(0.3210646056 0 0.4123081699)
(0.2603991081 0 0.3266873884)
(0.4149875842 0 0.6779559562)
(0.4247235523 0 0.9242980027)
(0.3271351568 0 0.8044538919)
(0.2900227053 0 -0.497959565)
(0.4508825282 0 -0.6476179172)
(0.5775917949 0 -0.6718039317)
(0.7044474561 0 -0.6872217788)
(0.7933054723 0 -0.8251039452)
(0.7867952527 0 -0.8704829059)
(0.769278523 0 -0.8227374654)
(0.87972261 0 -0.776114531)
(0.942723092 0 -0.621185492)
(0.5889231348 0 -0.3119784819)
(0.3419214132 0 -0.2712050748)
(0.2556605567 0 -0.2218273948)
(0.154319378 0 -0.1585102446)
(0.1378209645 0 -0.08752615515)
(0.3248141064 0 -0.07508720414)
(0.2792159265 0 0.277538103)
(0.2667504809 0 0.1709453787)
(0.3608295629 0 0.2618828957)
(0.3674368277 0 0.308751658)
(0.3428142487 0 0.3289485889)
(0.338152801 0 0.3700904296)
(0.3266033582 0 0.3989684065)
(0.2863477167 0 0.3847625473)
(0.2539877283 0 0.3383585744)
(0.349160866 0 0.4764819482)
(0.3862748042 0 0.6093388436)
(0.3204538378 0 -0.4409125399)
(0.5565249218 0 -0.5730457033)
(0.7549795083 0 -0.655225108)
(0.8913928479 0 -0.8222742791)
(0.9290151719 0 -0.8901764923)
(0.916511971 0 -0.8096794187)
(0.9113576669 0 -0.6676408717)
(0.8336858808 0 -0.5087121328)
(0.509166709 0 -0.3275686808)
(0.2700226481 0 -0.2492854027)
(0.1577713187 0 -0.1613400884)
(0.1699387077 0 -0.1377525352)
(0.2060485334 0 -0.1040362577)
(0.7685810116 0 -0.1746066578)
(0.4050844943 0 0.4288127853)
(0.2433407883 0 0.1722536553)
(0.2860132582 0 0.1743622625)
(0.3036291735 0 0.2376152886)
(0.3056712436 0 0.2762097163)
(0.3045020311 0 0.3072515807)
(0.2945543568 0 0.3281204234)
(0.2703992063 0 0.3301062813)
(0.2412888449 0 0.3158673156)
(0.2637386703 0 0.3477884582)
(0.2849610657 0 0.3960976605)
(0.2424577773 0 -0.3585753646)
(0.3906465041 0 -0.4170183921)
(0.6208899437 0 -0.5120976991)
(0.8215764314 0 -0.6578498873)
(0.9313088486 0 -0.7793439849)
(0.9820588726 0 -0.7651941112)
(0.9579572064 0 -0.6472607033)
(0.8110304133 0 -0.4923046088)
(0.4861898984 0 -0.3318987678)
(0.1825311677 0 -0.424134731)
(0.2455570638 0 -0.02852783182)
(0.3371354679 0 0.1968462862)
(0.3098563395 0 0.2829247812)
(0.9128115749 0 0.3135753681)
(0.8666371943 0 0.4614559597)
(0.3578041894 0 0.2515534333)
(0.2082252449 0 0.1336374711)
(0.2237178623 0 0.1654849312)
(0.2337195079 0 0.2004516375)
(0.2371297281 0 0.2259595068)
(0.2370312024 0 0.2468612143)
(0.2309673505 0 0.261246972)
(0.218662414 0 0.2664832176)
(0.2136245251 0 0.2734761578)
(0.2862391361 0 -0.3525710076)
(0.3831276858 0 -0.3601915153)
(0.5340066596 0 -0.4087618156)
(0.67877524 0 -0.5153054693)
(0.8087722513 0 -0.5919759348)
(0.8336851567 0 -0.5529207934)
(0.6842030771 0 -0.4308344471)
(0.2820202185 0 -0.2960696769)
(0.3223607412 0 -0.4453730645)
(0.8836549174 0 -0.3166155306)
(0.5800775412 0 0.3773748587)
(0.3775940656 0 0.3220312141)
(0.7362291693 0 0.2019149932)
(0.7541496231 0 0.32526705)
(0.4717587459 0 0.2601119385)
(0.2198313554 0 0.1558454618)
(0.1605760735 0 0.1298929565)
(0.1693286137 0 0.1470065538)
(0.1779018933 0 0.1666971565)
(0.1841402585 0 0.1851612164)
(0.1878557746 0 0.2021818673)
(0.1841760301 0 0.2131011298)
(0.3351176682 0 -0.3379131891)
(0.3751056645 0 -0.3175470731)
(0.3958821819 0 -0.2971475946)
(0.4496775654 0 -0.3210564514)
(0.5110836221 0 -0.3530636048)
(0.4204546717 0 -0.3250771932)
(0.2423657668 0 -0.2712973893)
(0.3614477146 0 -0.2939795621)
(1.103426935 0 -0.2752858332)
(0.6885579849 0 0.4081889338)
(0.4487486002 0 0.3355288955)
(0.5571177655 0 0.1831827866)
(0.6241035838 0 0.2436297264)
(2.645713283 0 1.642003115)
(2.667387309 0 2.739783975)
(1.801175964 0 2.127036894)
(0.1826542002 0 0.1913499726)
(0.1357232196 0 0.1339998163)
(0.1436219393 0 0.1471466647)
(0.1495354805 0 0.1600074639)
(0.3670183808 0 -0.2968832898)
(0.3514961386 0 -0.2747060274)
(0.3681234385 0 -0.3037807048)
(0.5625599034 0 -0.4435518361)
(0.3011530705 0 -0.1855209895)
(0.4286070192 0 -0.1842629757)
(0.9527249308 0 -0.2318430247)
(0.6413531988 0 0.3373647443)
(0.4747980133 0 0.3128233174)
(0.5968602644 0 -0.02832238705)
(0.7762435169 0 -0.2031246753)
(3.934233723 0 1.904813819)
(3.312394399 0 2.479279122)
(1.742893057 0 1.562766178)
(0.1517808088 0 0.1612641695)
(0.113077481 0 0.1202495435)
(0.1200276379 0 0.128779185)
(0.3369927826 0 -0.3002332897)
(0.3914369587 0 -0.3472278341)
(0.6601410916 0 -0.4915069604)
(0.4221055472 0 -0.2072539949)
(0.4676330527 0 -0.165566209)
(0.6552579042 0 -0.1593445755)
(0.5188707654 0 0.2086549401)
(0.4455191218 0 0.2534018926)
(0.647572661 0 -0.1644781393)
(0.8087580953 0 -0.3901278613)
(4.083883747 0 1.773669323)
(2.83571607 0 1.731062094)
(0.8357152895 0 0.6472911139)
(0.3274492253 0 0.284485943)
(1.332494393 0 -0.1679140228)
(0.8365045407 0 -0.2386165942)
(0.716997189 0 0.1289971819)
(0.4169377347 0 0.09129123233)
(0.397399803 0 0.1860418397)
(0.7036171969 0 -0.1399270595)
(0.7244317939 0 -0.1651500518)
(2.788340771 0 1.138386287)
(1.387937687 0 0.7610028562)
(-1.245274904 0 -0.4744911502)
(-1.210037649 0 -0.4151050412)
(-1.120160972 0 -0.3517259137)
(-0.9831474758 0 -0.2858012348)
(-0.6860867415 0 -0.1848989337)
(-0.6278682838 0 -0.1701939796)
(-0.3703203909 0 -0.1018966443)
(-0.3503291586 0 -0.08946689655)
(-0.3394097486 0 -0.08708949582)
(-0.3146259424 0 -0.07040638783)
(-0.2438825253 0 -0.03964859567)
(-0.2520141259 0 -0.04032452286)
(-0.2640953596 0 -0.03205606062)
(-0.3607304346 0 -0.02528357119)
(-0.3503052953 0 -0.02262660811)
(-0.4590912399 0 0.007102307318)
(-0.4076656237 0 0.03293247385)
(-0.3929909398 0 0.03091319126)
(-0.2989713002 0 0.03657107963)
(-0.4894428204 0 -0.03456436536)
(-1.268709029 0 0.277176096)
(-1.319849113 0 0.3907686689)
(-1.159365689 0 0.4261236538)
(-0.6708344676 0 -0.4082276436)
(-0.8324530418 0 -0.474291513)
(-1.01315283 0 -0.5293530762)
(-1.159812539 0 -0.5565273915)
(-1.142317238 0 -0.5381752828)
(-1.219812959 0 -0.5346811156)
(-1.208381586 0 -0.479651487)
(-1.2441991 0 -0.4831446254)
(-1.205609964 0 0.524290246)
(-0.8901651911 0 0.4249425425)
(-0.8313433205 0 0.3688400641)
(-0.9037685145 0 0.3278432395)
(-0.6994883516 0 0.2704510018)
(-0.7420399212 0 0.2825511985)
(-0.5805770648 0 0.2521054221)
(-0.5277469448 0 0.257049669)
(-0.3457429885 0 -0.2899855139)
(-0.4230268542 0 -0.3216898812)
(-0.5800728449 0 -0.3952059978)
(-0.5109045377 0 -0.3521993921)
(-0.463844467 0 0.317711445)
(-0.4557208179 0 0.314315392)
(-0.4601034377 0 0.2888958547)
(-0.4330054804 0 0.3005947476)
(-0.2642798031 0 -0.257449405)
(-0.2812958269 0 -0.2670584031)
(-0.2822212422 0 -0.2665681527)
(-0.3203112967 0 -0.2861422889)
(-0.3950247219 0 -0.3243869196)
(-0.353406827 0 -0.2967045905)
(-0.4539174774 0 0.3743281591)
(-0.4187083836 0 0.3406811158)
(-0.4000118072 0 0.3018634186)
(-0.365068272 0 0.2926524909)
(-0.3185192847 0 0.2611507897)
(-0.2695629945 0 -0.2707197344)
(-0.2710327771 0 -0.2702086579)
(-0.2580573483 0 -0.2545564885)
(-0.291647115 0 0.2763349575)
(-0.2677083772 0 0.2746575088)
(-0.4403357409 0 -0.5208373159)
(-0.4389722375 0 -0.5064455166)
(-0.3246225265 0 -0.3472069273)
(-0.2933872855 0 0.3292038663)
(-0.2885600562 0 0.3364462465)
(-0.667548688 0 -0.90147849)
(-0.6747769669 0 -0.8843278163)
(-0.7268497906 0 -0.913877116)
(-0.6038588044 0 -0.7355065035)
(-0.3392957334 0 0.3853383255)
(-0.3275706718 0 0.3850192491)
(-0.3081716289 0 0.3583138213)
(-0.3242104004 0 0.3882117685)
(-0.7399111666 0 -1.09918805)
(-0.7555358856 0 -1.089918354)
(-0.7364859984 0 -1.028238089)
(-0.3464922949 0 0.4178875173)
(-0.3360181795 0 0.4098029861)
(-0.333392337 0 0.4049449138)
(-0.6420789488 0 -1.054118342)
(-0.6972938042 0 -1.096609991)
(-0.3024772166 0 0.3800196467)
(-0.4913577271 0 -0.8882429828)
(-0.506929874 0 -0.9106855886)
(-0.5746162078 0 -0.984926005)
(-0.2656012537 0 0.3553494388)
(-0.2541067569 0 0.3560255894)
(-0.2711487582 0 0.358651161)
(-0.3395868233 0 -0.7113624888)
(-0.3651629953 0 -0.7440872447)
(-0.4047012911 0 -0.8096824594)
(-0.4525102621 0 -0.852142275)
(-0.2469085524 0 0.3795653676)
(-0.2383255114 0 0.3933883329)
(-0.2431843609 0 0.3665033055)
(-0.2330367571 0 0.4028958148)
(-0.1184091149 0 -0.4179680202)
(-0.2593494402 0 -0.6432566642)
(-0.2223891161 0 0.4618046988)
(-0.06243866665 0 -0.3588849688)
(-0.06510963568 0 -0.3535509318)
(-0.09777577528 0 -0.3680412221)
(-0.1972329901 0 0.4901154398)
(-0.180457504 0 0.4642486012)
(-0.001119774795 0 -0.3818300052)
(0.01159859418 0 -0.3829870901)
(-0.0350754763 0 -0.3658685319)
(-0.1401287673 0 0.449159578)
(-0.1176169675 0 0.3934028276)
(-0.1533890865 0 0.4411616273)
(0.006741129063 0 -1.120061229)
(0.002266213564 0 -0.8262658574)
(-0.03096741112 0 -0.3732851624)
(-0.05516565919 0 0.3096601308)
(-0.03711288574 0 0.2686834976)
(-0.07892094082 0 0.3345854566)
(0.6529148827 0 -1.321508584)
(0.5691542331 0 -1.100667806)
(0.400051356 0 -0.9771732576)
(0.02273631121 0 0.1694569177)
(0.01996360617 0 0.1656679053)
(0.01628398001 0 0.1736838956)
(0.1188871022 0 -1.02078524)
(0.1296967988 0 -1.069436972)
(0.120045395 0 -1.166243653)
(0.03065422048 0 0.1785680506)
(0.02861419376 0 0.1733485268)
(0.02301060688 0 0.1723009874)
(0.1264615383 0 -0.5961982025)
(0.1227629912 0 -0.7784120922)
(0.117940407 0 0.8334403171)
(0.03644675878 0 0.2086030314)
(0.1470183533 0 -0.4935243396)
(0.1318371831 0 -0.5125760306)
(0.6299147741 0 1.846444372)
(0.1873697487 0 -0.5640133483)
(0.2384243006 0 -0.6484833195)
(0.2678555166 0 -0.725561813)
(0.2255847444 0 -0.6624067661)
(0.3907145378 0 0.8159865953)
(0.4115099051 0 0.8749874228)
(0.6528883289 0 1.500849089)
(0.2817532322 0 -0.6416917702)
(0.3056685472 0 -0.6814979883)
(0.2987569682 0 -0.7353852476)
(0.2510303394 0 0.7175880198)
(0.2995219212 0 0.7424023224)
(0.3509338284 0 0.7776355603)
(0.2831355822 0 -0.5489859901)
(0.3037566822 0 -0.6172701849)
(0.3782693367 0 0.7724373598)
(0.2470058261 0 -0.4238630459)
(0.3066816704 0 -0.4729542136)
(0.3748940779 0 -0.5908331115)
(0.3335277576 0 0.4878966829)
(0.3417388814 0 0.5237372257)
(0.3777326459 0 0.634219351)
(0.2497809876 0 -0.3931301769)
(0.2648408135 0 -0.3795727587)
(0.3701636666 0 -0.4376228032)
(0.4483038428 0 -0.5221598104)
(0.2358060009 0 0.3067080851)
(0.2390699027 0 0.3170241574)
(0.2735032609 0 0.3692785832)
(0.2628156196 0 -0.3563232537)
(0.2860630722 0 -0.3729491336)
(0.1989120361 0 0.2483693847)
(0.2185296495 0 0.284353683)
(0.310799726 0 -0.3459675209)
(0.3176283801 0 -0.3514083851)
(0.17004969 0 0.1924401421)
(0.1849952823 0 0.2197250224)
(0.3553044057 0 -0.328359092)
(0.3545903379 0 -0.3293606434)
(0.3670906152 0 -0.3196038175)
(0.3735915688 0 -0.3086141653)
(0.3868061815 0 -0.305851805)
(0.1282559135 0 0.1352429636)
(0.1336918999 0 0.1416684819)
(0.1471819105 0 0.1540495114)
(0.1385654162 0 0.1491780484)
(0.1536408916 0 0.167491456)
(0.3680362959 0 -0.309401124)
(0.3581701059 0 -0.2974715304)
(0.3488440683 0 -0.2901217826)
(0.361048453 0 -0.2823550022)
(0.1084438744 0 0.1188326596)
(0.1110542756 0 0.1192909387)
(0.1161247515 0 0.1231974336)
(0.3519207305 0 -0.3206676608)
(0.4261087635 0 -0.3515928207)
(0.674192564 0 -0.4609533805)
(0.4931800488 0 -0.3944784854)
(1.44674144 0 -0.8469866764)
(2.815386608 0 -1.126394985)
(0.738115658 0 -0.7317583453)
(1.986009686 0 1.146049786)
(1.037808752 0 0.6954675695)
(1.799076966 0 1.239966648)
(0.6932672987 0 0.5175421579)
(0.5669909846 0 0.4486486284)
(0.5015542036 0 0.418807956)
(0.1866397053 0 0.1775267876)
(2.673926013 0 -0.9428868582)
(0.722276006 0 -0.2259874152)
(0.9731039691 0 -0.1937857826)
(1.03377523 0 -0.2277429529)
(0.6063278593 0 0.09465859623)
(0.2547714312 0 -0.05285262677)
(0.274319584 0 -0.05324595264)
(0.3817769689 0 0.04827396353)
(0.395046888 0 0.1265433337)
(0.4218669335 0 0.1604133377)
(0.3766101507 0 0.1584176008)
(0.3484450195 0 0.1624862991)
(0.3617550283 0 0.173039265)
(0.6915934297 0 -0.113464663)
(0.7577373956 0 -0.1960689467)
(0.7305989242 0 -0.2214124552)
(0.7122388814 0 -0.1344900249)
(1.334432606 0 0.2962206553)
(2.230821834 0 1.075187133)
(-1.160907142 0 -0.4126141176)
(-1.105482903 0 -0.3515611159)
(-1.115349589 0 -0.3509504105)
(-1.024541683 0 -0.294180301)
(-0.8707459154 0 -0.2303131868)
(-0.8017458784 0 -0.2131673255)
(-0.3949509262 0 -0.1096111208)
(-0.3748713933 0 -0.09581651575)
(-0.3628869987 0 -0.09238858347)
(-0.3320544906 0 -0.07611412262)
(-0.2323777725 0 -0.04514908727)
(-0.2348829697 0 -0.04116428898)
(-0.2542753928 0 -0.03581210455)
(-0.3663945307 0 -0.03117067217)
(-0.3674491264 0 -0.02832938368)
(-0.4824943472 0 0.001201210673)