/*--------------------------------*- C++ -*----------------------------------*\
| =========                 |                                                 |
| \\      /  F ield         | OpenFOAM: The Open Source CFD Toolbox           |
|  \\    /   O peration     | Version:  2.1.x                                 |
|   \\  /    A nd           | Web:      www.OpenFOAM.org                      |
|    \\/     M anipulation  |                                                 |
\*---------------------------------------------------------------------------*/
FoamFile
{
    version     2.0;
    format      ascii;
    class       volScalarField;
    location    "0.8";
    object      deltaf;
}
// * * * * * * * * * * * * * * * * * * * * * * * * * * * * * * * * * * * * * //

dimensions      [0 1 0 0 0 0 0];

internalField   nonuniform List<scalar> 
2828
(
1.090463965e-07
7.299356415e-08
2.412139335e-11
2.155828501e-11
5.563642562e-12
7.712904527e-07
4.748757637e-07
2.967939705e-07
1.002568116e-07
9.880216132e-09
2.497320528e-07
1.40751252e-06
6.879754042e-06
3.622346842e-05
0.0001903219044
0.001177849105
0.003252055959
2.381549554e-06
1.458971429e-06
6.943640777e-07
4.973480629e-07
2.754976877e-07
4.053402601e-07
1.566603104e-06
6.36825308e-06
2.435995004e-05
9.174426379e-05
0.0003225632327
0.0009783361431
0.002285881947
0.002197036533
1.34306879e-08
3.899307118e-23
3.412794038e-06
1.803906851e-06
8.963639104e-07
5.673434545e-07
5.45846296e-07
1.167884131e-06
3.750684192e-06
1.208470075e-05
3.876480759e-05
0.0001193644955
0.0003383109356
0.0008296322124
0.001619462644
0.002122866111
0.001160434809
8.358601309e-10
8.998508981e-22
4.424349e-08
4.924258944e-08
4.555157112e-06
2.302237549e-06
1.10534496e-06
6.557612474e-07
9.195387002e-07
2.234034812e-06
6.256699369e-06
1.764306244e-05
4.91507221e-05
0.0001317844325
0.0003266803457
0.0007140530797
0.001295016811
0.00177963138
0.001547924157
0.000552333616
5.689159757e-09
4.379551112e-08
6.601073544e-08
4.219286524e-08
2.622593241e-08
5.668996422e-06
3.08381373e-06
1.544138741e-06
9.473985941e-07
1.499940185e-06
3.43873281e-06
8.761999305e-06
2.249578068e-05
5.664983883e-05
0.0001369988274
0.0003089555985
0.0006257302487
0.001087118187
0.00152457873
0.001568857259
0.0009870990429
0.0002492147437
3.679596611e-08
8.050331323e-07
4.32557908e-06
1.184413515e-05
3.762323395e-05
0.0001310364231
7.944062954e-06
4.475182941e-06
2.219725328e-06
1.422787264e-06
2.206755957e-06
4.698710194e-06
1.109274204e-05
2.647816833e-05
6.184552637e-05
0.0001385699073
0.0002911787311
0.0005576043497
0.000939370948
0.001331707009
0.001493956433
0.001201893473
0.0005773897908
0.0001100213581
9.122771801e-07
1.241130188e-05
2.355157627e-05
4.006378427e-05
5.433105548e-05
3.241897745e-05
1.017999087e-05
6.494330547e-06
3.154224598e-06
2.057374359e-06
2.982518992e-06
5.937408941e-06
1.317036978e-05
2.96266621e-05
6.524502892e-05
0.0001379323419
0.0002747055951
0.0005039753791
0.0008287131323
0.001180940248
0.001396024182
0.001286053437
0.0008350965756
0.0003191191672
4.966645012e-05
4.623790973e-06
2.986012597e-05
4.111155895e-05
4.656401491e-05
3.595210999e-05
9.518389153e-06
2.993048511e-07
8.971440301e-06
4.281995126e-06
2.90403347e-06
3.824634431e-06
7.111536032e-06
1.495369942e-05
3.203610865e-05
6.728564756e-05
0.0001358918848
0.0002595984272
0.0004605974269
0.0007427397484
0.001060402313
0.001297212973
0.001301657884
0.001005516667
0.0005409369225
0.0001711863036
2.547906656e-05
1.612125938e-05
5.015130971e-05
4.546577689e-05
3.72711404e-05
1.926922958e-05
3.238947208e-06
5.536892994e-07
4.440436446e-08
9.821904024e-06
5.707467831e-06
3.884537774e-06
4.781123568e-06
8.261196775e-06
1.648295193e-05
3.383514761e-05
6.832500014e-05
0.0001329836942
0.0002457481682
0.0004245904555
0.0006738828511
0.0009622174879
0.001205102187
0.001281771192
0.001108122042
0.0007307941021
0.0003340214667
9.250283775e-05
1.818181027e-05
3.628507673e-05
4.993999204e-05
3.919430273e-05
2.475938883e-05
9.514332598e-06
1.283641702e-06
2.014484061e-07
2.554159426e-08
9.044555084e-06
5.077464641e-06
5.833170641e-06
9.444366646e-06
1.786746671e-05
3.522012694e-05
6.870296323e-05
0.0001296215545
0.0002330885327
0.0003941096415
0.0006173664412
0.0008808694036
0.001121913268
0.001244198363
0.001163426237
0.0008780058636
0.0005028113745
0.0002007723415
5.234859475e-05
1.707955223e-05
4.458059758e-05
4.208897568e-05
2.881683045e-05
1.450100027e-05
3.913141542e-06
1.236996131e-12
7.076823345e-13
1.832222007e-08
7.860633444e-06
7.040430242e-06
1.068978861e-05
1.921575867e-05
3.640438401e-05
6.875478851e-05
0.0001261831613
0.0002216525736
0.000368006965
0.0005701292737
0.0008125084462
0.00104775171
0.001198689115
0.0011871257
0.0009856723848
0.000657401442
0.0003327987705
0.0001200852037
3.211064717e-05
1.734105353e-05
4.119914212e-05
3.194851665e-05
1.852850141e-05
7.293185978e-06
1.500654141e-06
1.216153768e-06
6.082345015e-06
3.224335105e-05
0.0001214381858
8.94591817e-06
1.212340239e-05
2.0670296e-05
3.760820944e-05
6.879858772e-05
0.0001230153903
0.0002115459857
0.0003456094366
0.0005302099927
0.0007544452534
0.0009820630047
0.001151183152
0.001193510984
0.001069724366
0.0007951717745
0.0004742010662
0.0002243480427
9.89127677e-05
0.0001252669641
0.0002990282978
8.882405115e-05
2.974638477e-05
1.374605496e-05
4.769649279e-06
1.937210228e-06
5.622531334e-06
2.254601301e-05
6.699245224e-05
0.0001212921316
1.170810208e-05
1.449826852e-05
2.257479944e-05
3.912671703e-05
6.915405481e-05
0.0001204356391
0.0002029077834
0.0003265220137
0.0004963366603
0.0007048137612
0.000923934911
0.001103618583
0.001184704132
0.001125388024
0.0009187800675
0.000622195084
0.0003457019152
0.0001746963548
0.0001318795133
0.0001682558003
0.0001536024758
8.668626544e-05
6.17732275e-05
3.389008558e-05
1.299251693e-05
3.908570277e-06
1.458413983e-05
4.183961795e-05
8.253627788e-05
7.649864274e-05
1.661823915e-05
2.527037051e-05
4.127087889e-05
7.012016004e-05
0.0001187078544
0.0001958575129
0.0003104902695
0.0004676577852
0.000662304149
0.0008725933458
0.00105734933
0.001163900603
0.001149555599
0.001004369228
0.0007542338422
0.0004779039747
0.0002559100897
0.0001337523677
7.969060879e-05
0.0001419541323
9.795816941e-05
3.23524409e-05
1.085497868e-05
1.165268699e-05
1.016769852e-05
8.21286736e-06
2.670650981e-05
5.786297925e-05
7.996992116e-05
4.606425383e-05
2.666901081e-05
4.370546819e-05
7.157636523e-05
0.0001178062384
0.0001903305627
0.0002972407575
0.0004435284629
0.0006259891571
0.0008275514011
0.001014331104
0.001140031528
0.001160852039
0.001057891512
0.0008521300146
0.0005961050135
0.0003553135623
0.0001810675152
8.246490149e-05
3.02430486e-05
0.0001429745178
0.0001111087931
3.942914767e-05
9.748619859e-06
6.550552736e-06
7.61685862e-06
1.517046276e-05
3.944622185e-05
6.702569997e-05
7.072225499e-05
3.689484921e-05
4.52725799e-05
7.339007054e-05
0.0001173256102
0.0001859095458
0.0002863009648
0.0004233136197
0.0005951040838
0.0007882947231
0.0009749520327
0.001114964366
0.001166554917
0.001103731941
0.00093311873
0.0006970500766
0.0004545283402
0.0002528060523
0.0001170189289
3.862913591e-05
3.496898201e-07
0.0001312511734
0.0001144197158
4.681058907e-05
1.106343181e-05
5.73513587e-06
8.413331282e-06
2.3826363e-05
5.047017163e-05
7.022334336e-05
6.232024322e-05
3.603690387e-05
7.172123624e-05
0.0001163068833
0.0001818685187
0.0002770093424
0.0004063351116
0.0005689816239
0.000754437244
0.0009395735983
0.001089736182
0.00116626752
0.00114024815
0.001007587087
0.0007962828788
0.0005570517997
0.0003393787383
0.000173304423
7.008886815e-05
1.787459017e-05
1.469945503e-05
6.401429907e-05
9.606949942e-05
5.295978689e-05
1.294164052e-05
6.016929682e-06
1.175611336e-05
3.294857413e-05
5.865568236e-05
6.987381111e-05
5.629285953e-05
3.799552758e-05
0.0001783709353
0.000269208076
0.000392241087
0.0005471841552
0.0007257203592
0.0009085985059
0.001065842377
0.001162092671
0.001167421411
0.001070530891
0.000887761255
0.0006603291421
0.0004368046249
0.0002510470566
0.0001170003767
4.069879614e-05
1.124783395e-05
3.836287434e-05
3.800753152e-05
8.784553316e-05
5.713888899e-05
1.519851208e-05
7.05586425e-06
1.684283455e-05
4.155578824e-05
6.414271352e-05
6.872136283e-05
5.50734885e-05
4.362251006e-05
0.0002667295329
0.0003821374537
0.0005300831448
0.0007023197023
0.0008825187353
0.001044636391
0.001156515925
0.001188326365
0.001123805445
0.0009696225066
0.00075691768
0.0005312039103
0.0003332957014
0.0001825837351
7.898615691e-05
2.348450938e-05
9.222057869e-06
1.31493341e-05
2.702557915e-05
7.75046114e-05
5.93431755e-05
1.776545816e-05
8.884831736e-06
2.295604134e-05
4.917095834e-05
6.7844681e-05
6.822337522e-05
5.639888867e-05
4.895698433e-05
0.0003749702512
0.0005193866109
0.0006852462315
0.0008622289502
0.001027441289
0.001151662469
0.001205843041
0.001170550639
0.00104491826
0.0008503883692
0.0006256331805
0.0004132532605
0.0002437253425
0.000125512703
5.052337187e-05
1.308341212e-05
2.045199134e-06
1.460184557e-05
2.077522634e-05
6.776902016e-05
5.973682427e-05
2.055430986e-05
1.153747896e-05
2.954416726e-05
5.574826831e-05
7.06000797e-05
6.875844485e-05
5.953475188e-05
0.0006763444551
0.0008490431239
0.001015772928
0.001149516941
0.0012224122
0.001213157399
0.001115300751
0.0009421214964
0.0007247408379
0.0005028478789
0.0003115622802
0.0001704247999
8.005867236e-05
2.936056288e-05
7.30229314e-06
5.611215756e-06
1.315024311e-05
1.811817328e-05
6.082506978e-05
5.972518634e-05
2.35885059e-05
1.498442026e-05
3.623824399e-05
6.14298102e-05
7.29311942e-05
7.002955633e-05
6.285541397e-05
0.0008391098917
0.001010956236
0.001151953577
0.001240293901
0.001253864626
0.001182117468
0.001031642374
0.0008265378154
0.0006022041858
0.0003945754407
0.0002293231045
0.0001160314128
4.948211372e-05
1.710174846e-05
1.2255404e-05
5.621487429e-05
9.25310246e-05
8.357225138e-05
5.860804095e-05
5.913394084e-05
2.698719019e-05
1.913682235e-05
4.278482693e-05
6.635148902e-05
7.508218392e-05
7.192749234e-05
0.001165070449
0.00126137191
0.001295133812
0.001248806332
0.00112149103
0.0009293900176
0.0007076661149
0.0004892397613
0.0003032806448
0.0001658340229
7.8221472e-05
3.128871794e-05
1.785561006e-05
8.858123549e-05
0.0002347432288
0.0003843364619
0.0004572104355
0.000389550408
8.297133961e-05
2.921897448e-05
2.385812719e-05
4.896650969e-05
7.058188264e-05
7.717680376e-05
7.418940423e-05
0.001274301258
0.001337557895
0.001316039387
0.001216052333
0.001040530982
0.0008194390651
0.0005927944234
0.0003894648904
0.0002287991841
0.0001180361184
5.222692023e-05
2.058480254e-05
3.122068028e-05
0.0001427233692
0.0003247869856
0.0005192128941
0.0006541913317
0.0006922609072
0.0006207854436
7.505508883e-05
2.850497092e-05
5.420651719e-05
7.411322759e-05
7.947146284e-05
0.001375391694
0.001306009632
0.001149266552
0.0009333684035
0.0007134763541
0.0004868969295
0.0003043202848
0.0001695672982
8.25352598e-05
3.393278597e-05
1.145700154e-05
1.640449337e-05
8.805770671e-05
0.0002034843191
0.0003356813252
0.0004334988929
0.0004677225543
0.0004630368679
0.0005092285102
0.0006824066989
0.0001143764334
7.796385357e-05
0.001256672969
0.001066348668
0.0008328795161
0.00060502548
0.0003927786687
0.000233645737
0.0001234086195
5.644646069e-05
2.112381202e-05
5.492388619e-06
4.196510319e-07
2.557233588e-05
8.387462864e-05
0.0001625011027
0.000235091737
0.0002715919491
0.0002622143985
0.0002207532159
0.0001594145282
0.0005755858173
0.0007294314412
0.0004993275947
0.0003116104959
0.0001762632726
8.797626971e-05
3.742901641e-05
1.234020677e-05
3.664952651e-07
1.951151831e-08
1.898211864e-06
9.82336328e-06
5.116146029e-05
0.0001470188221
0.0002478194755
0.0003083675421
0.0003181670954
0.0002947020494
0.0004068186505
0.00024492758
0.0001302959655
6.111853885e-05
2.370090257e-05
6.699150814e-06
8.446092849e-07
9.175103746e-08
8.54940161e-08
2.638296826e-06
2.129708352e-05
0.0001032003708
0.0002359017346
0.0003502173673
3.974932139e-05
1.340787638e-05
1.485311919e-06
8.301050694e-07
6.691464878e-07
9.018487716e-09
7.955168806e-07
1.4147332e-06
3.453835757e-05
3.375475404e-07
2.786929667e-07
2.066085249e-07
1.330926203e-07
7.39494667e-08
1.022627473e-07
6.140367581e-08
7.253504498e-08
1.148931009e-07
3.496791814e-08
1.669000039e-13
3.993291073e-09
5.728076094e-15
3.139052074e-14
2.605417324e-12
1.908254184e-13
1.007872681e-12
1.309358376e-12
5.561227793e-12
3.174993706e-11
3.58895361e-10
4.878337568e-09
1.801098494e-08
1.464008705e-06
1.121026837e-06
8.328609922e-07
5.792840245e-07
5.975868215e-07
4.800077285e-07
4.041000719e-07
3.876233855e-07
0.001964260879
0.003084898869
0.003262691922
0.002805933849
0.002098013169
0.003221073914
1.866272881e-07
6.205668081e-07
2.942494873e-06
2.314412434e-06
1.555116821e-06
1.917896179e-06
1.317259226e-22
2.016097244e-08
1.418251965e-08
3.570025844e-08
4.714881013e-06
3.857519382e-06
4.058444554e-06
2.769313568e-06
2.051979543e-06
2.755511618e-06
5.480283082e-08
5.405653812e-08
4.958245852e-08
4.926072441e-08
4.292954943e-08
6.109496466e-06
5.104982411e-06
5.526838211e-06
1.000669385e-08
1.269301358e-07
7.605797094e-06
6.633398805e-06
6.705956069e-06
6.402112138e-05
1.895742331e-07
9.272432805e-06
7.91158388e-06
5.379654196e-06
5.958420387e-06
1.728035018e-05
2.989528644e-10
7.530423438e-08
1.315983285e-07
9.691589893e-06
7.326238083e-06
8.97056102e-06
4.159442573e-07
5.327700903e-07
5.460040181e-07
9.440968986e-06
1.012963355e-05
1.639967061e-08
9.467171003e-06
7.121917478e-06
8.724038731e-06
1.159990112e-07
1.23673601e-07
3.352605509e-08
9.554328215e-06
8.588449098e-06
6.093547222e-06
6.24946125e-06
1.201381432e-05
3.317761765e-05
2.541538321e-08
0.0001212532227
9.253616173e-06
9.540272529e-06
0.0001215196496
1.021574047e-05
9.978170001e-06
9.147403788e-06
0.0001041780578
1.797944017e-05
1.371830802e-05
1.588942259e-05
1.246469349e-05
5.735131699e-05
1.849284297e-05
1.794165764e-05
2.077889413e-05
2.650517033e-05
2.045083137e-05
3.987323968e-05
2.155648196e-05
1.969866249e-05
3.473764349e-05
4.502053909e-05
3.453587013e-05
3.586329794e-05
2.681941313e-05
2.397653514e-05
5.816218181e-05
7.452448575e-05
5.830815563e-05
3.690477618e-05
3.286133091e-05
2.98937585e-05
0.0001128747925
9.306798399e-05
4.062833209e-05
3.543256187e-05
0.0001772076504
0.0001412277646
4.655231062e-05
0.0002159794887
0.0003147172296
0.0003790180651
0.0003196931498
5.778729741e-05
5.384746714e-05
5.14685465e-05
0.0004399055332
0.0005192831466
0.0004457705727
6.091365222e-05
5.82261086e-05
5.623215954e-05
0.0006651532834
0.000589025549
6.455793872e-05
0.0009189250784
0.001013519517
0.0009290176312
7.285523342e-05
7.033240561e-05
6.892799718e-05
0.001080902173
0.001223273334
0.001272977525
0.001218405346
7.821245107e-05
7.735185194e-05
7.616685802e-05
0.001351459705
0.001322149984
8.048166947e-05
7.840989784e-05
0.001343395462
0.00135649589
8.137672455e-05
8.094964794e-05
0.001122519703
0.001172849593
0.001021546255
0.0009066180766
0.0009509670338
0.0001346865767
0.000143801609
9.408756879e-05
0.0003157307914
0.0001244023923
0.0008512552146
0.0006699693168
0.0005589308985
0.0006101017177
0.0003655467242
0.0003409495286
0.000302463353
0.0003194981676
0.0002132874562
0.0001552206717
0.0001808234272
0.0001118200584
7.741174568e-05
9.109809386e-05
6.103514738e-05
0.0001078182463
0.0001649178754
0.0001692760442
0.0002354915697
0.0003037075456
0.0003710494738
6.392615908e-05
2.380126263e-05
5.624000779e-06
7.258371924e-06
1.255826814e-06
6.349709763e-07
7.692139878e-07
7.665400937e-07
1.820942533e-06
1.304663991e-06
1.436097959e-06
9.674001643e-08
3.69296424e-08
1.249741855e-08
4.060447152e-08
1.515670128e-07
5.44905062e-07
1.276710348e-06
7.887461715e-06
3.008706099e-07
1.769076364e-07
1.980488071e-07
1.673569417e-07
2.017882263e-07
5.316170289e-09
2.909870873e-07
7.019022391e-07
5.598622184e-08
1.739157227e-06
3.684870827e-06
5.933368849e-07
7.568457518e-06
1.564450878e-05
3.129257614e-06
3.265304813e-05
6.834266319e-05
1.566494649e-05
0.0001408270392
0.0002824180823
8.245618003e-05
0.0005555244298
0.001075826822
0.0004666340957
1.101945212e-06
8.0178466e-07
9.358218357e-07
6.439438909e-07
5.451207189e-07
5.722188111e-07
4.237524387e-07
3.901513782e-07
3.984309639e-07
4.791370616e-07
7.350124122e-07
3.248374069e-07
1.367911816e-06
2.589041884e-06
7.48838677e-07
4.885859074e-06
9.201087589e-06
3.185654472e-06
1.726361503e-05
3.214154357e-05
1.249017548e-05
5.93177859e-05
0.0001081517913
4.742783754e-05
0.0001935068299
0.0003366176942
0.000174564471
0.000563527036
0.0008993671869
0.0005738530256
0.001353135216
0.001877666193
0.0015749289
0.002298215381
0.002294895435
0.002734145436
0.001625909683
0.0007580062993
0.001261189446
2.34993743e-09
3.465546288e-17
1.422635478e-16
1.414317827e-06
9.782246739e-07
1.258863746e-06
7.299907423e-07
5.949913068e-07
6.910897905e-07
5.675958342e-07
7.101134707e-07
4.696964474e-07
1.011196511e-06
1.675802655e-06
7.02813346e-07
2.882818703e-06
4.987789512e-06
2.088673667e-06
8.628589158e-06
1.492647983e-05
6.726994115e-06
2.579381283e-05
4.436756475e-05
2.16993781e-05
7.55911518e-05
0.0001268570793
6.85311253e-05
0.0002085777453
0.0003339815866
0.0002037256186
0.0005171383834
0.0007680073388
0.0005419616171
0.001083666663
0.001436067026
0.001200763022
0.001758526525
0.00194003671
0.001986079276
0.00185148686
0.001432842968
0.001844623877
0.000807799429
0.0002744168147
0.000455823679
1.085060426e-09
2.244015139e-09
8.569228101e-18
7.047170294e-09
4.535656666e-08
2.944342521e-08
3.548186705e-06
2.615615655e-06
3.146146664e-06
1.85318551e-06
1.286306165e-06
1.614333228e-06
9.174533862e-07
7.736464671e-07
8.010155654e-07
9.116299087e-07
1.187042137e-06
7.24649531e-07
1.779139726e-06
2.82488571e-06
1.375478602e-06
4.594041689e-06
7.523673323e-06
3.726609394e-06
1.233224569e-05
2.017490935e-05
1.05127855e-05
3.287356403e-05
5.322182913e-05
2.952725541e-05
8.533961818e-05
0.0001349850177
8.105395676e-05
0.0002096416574
0.0003180365069
0.0002101128581
0.0004686940616
0.0006669430769
0.0004922943792
0.0009100903259
0.001181343668
0.0009888713575
0.00144443206
0.001642562338
0.001584234443
0.001706814002
0.001579507173
0.001789277676
0.001252409916
0.0008010219538
0.001083093242
0.0003727403869
0.0001002189017
0.0001655390596
1.461409846e-08
6.469193979e-08
2.069085459e-08
1.246715778e-07
1.68747656e-07
7.491838764e-08
7.690504706e-08
4.152594704e-08
5.29538182e-08
2.41241597e-08
1.468561517e-08
3.309862877e-08
4.915768735e-06
3.76649539e-06
4.067709884e-06
2.732239352e-06
1.865146486e-06
2.229472505e-06
1.281017909e-06
1.167107009e-06
1.07283702e-06
1.365418697e-06
1.842526906e-06
1.118750016e-06
2.674028493e-06
4.066733558e-06
2.214890593e-06
6.333797733e-06
9.955095456e-06
5.466870969e-06
1.566902387e-05
2.459628331e-05
1.405689281e-05
3.84036061e-05
5.950266908e-05
3.582695456e-05
9.125647951e-05
0.0001381285789
8.868763309e-05
0.0002056340554
0.0002999298791
0.0002079898609
0.0004267590743
0.0005895406059
0.0004468124629
0.0007865449286
0.001007529894
0.0008435165629
0.001230716686
0.001421894946
0.001328657587
0.001537992055
0.001536818102
0.001621099362
0.001393032294
0.001116319502
0.00134675783
0.0007615595936
0.0004171393523
0.0005821000751
0.0001656910079
3.765792706e-05
6.10561793e-05
2.708855363e-07
2.768024977e-06
2.086528367e-07
5.406889624e-06
8.719968957e-06
2.834978316e-06
1.281673667e-05
1.886506733e-05
7.018540607e-06
2.765066815e-05
3.979661972e-05
2.078427424e-05
5.473457452e-05
6.796672952e-05
6.979157275e-05
3.861388308e-06
2.635398458e-06
3.249230278e-06
1.874490702e-06
1.717144204e-06
1.548824025e-06
1.977592692e-06
2.58753569e-06
1.654634361e-06
3.62927356e-06
5.325235805e-06
3.148324267e-06
8.007251997e-06
1.216665695e-05
7.183792801e-06
1.85297525e-05
2.81513662e-05
1.716073391e-05
4.25304071e-05
6.374018021e-05
4.062804901e-05
9.454641773e-05
0.0001384684146
9.317559585e-05
0.0001996988328
0.0002827668667
0.0002028214145
0.00039179795
0.0005292758831
0.0004084773328
0.0006942707195
0.0008803372234
0.0007372757227
0.001073588366
0.001251922984
0.00114661421
0.001386417306
0.001445951651
0.001459544518
0.001405353191
0.001255527804
0.001408902714
0.001012191369
0.0007177943021
0.0009039296595
0.0004316203534
0.0002081618808
0.0002957475082
7.341152599e-05
1.590673356e-05
2.38283235e-05
2.289702522e-06
1.556488439e-05
8.250123014e-06
2.103443456e-05
2.706508349e-05
1.740473101e-05
3.368390272e-05
4.045055869e-05
3.120505634e-05
4.620323473e-05
4.895884594e-05
4.881023525e-05
4.60736139e-05
3.527000868e-05
5.108282748e-05
5.297184311e-06
3.719991579e-06
4.582011676e-06
2.740758183e-06
2.453314679e-06
2.270751638e-06
2.706792676e-06
3.39248171e-06
2.327399343e-06
4.59317114e-06
6.531871663e-06
4.111066986e-06
9.540191015e-06
1.409889897e-05
8.794609222e-06
2.089964636e-05
3.091716587e-05
1.977561627e-05
4.549129154e-05
6.641126174e-05
4.414164035e-05
9.598381404e-05
0.0001370496102
9.545754115e-05
0.0001928949963
0.0002669875946
0.0001963671862
0.0003624500864
0.0004812122533
0.0003765162576
0.000622851443
0.0007831962794
0.0006564290291
0.0009530481347
0.001117454822
0.001009587213
0.001256185143
0.001346067674
0.00131868881
0.001365376692
0.001299878447
0.001389336966
0.001149079674
0.0009301839274
0.001092033924
0.000677060027
0.000432339567
0.0005607888992
0.0002341389179
0.0001026625784
0.0001460322171
3.458326073e-05
9.907189123e-06
1.168567017e-05
8.370329759e-06
3.626142514e-05
2.347664157e-05
4.181542472e-05
4.20252537e-05
3.57081911e-05
4.49954346e-05
4.560461229e-05
4.516730625e-05
4.296376641e-05
3.653217132e-05
4.383310911e-05
2.671892324e-05
1.532653447e-05
2.34313087e-05
5.457037929e-06
2.126149786e-09
7.889780977e-10
6.997817041e-06
4.861272319e-06
5.948957098e-06
3.761961023e-06
3.38559696e-06
3.24531632e-06
3.585356895e-06
4.286857365e-06
3.125712032e-06
5.582199498e-06
7.685334182e-06
5.080736201e-06
1.091874914e-05
1.574342367e-05
1.02453455e-05
2.280729225e-05
3.300094205e-05
2.190646816e-05
4.751748734e-05
6.790970829e-05
4.660723614e-05
9.612884983e-05
0.0001345189532
9.618925685e-05
0.0001857325531
0.0002525211221
0.0001893362843
0.0003373519358
0.0004418073353
0.0003494385224
0.0005657799624
0.0007065213671
0.0005928228668
0.0008577203528
0.001008906704
0.0009027557909
0.001145523949
0.001250107817
0.001198587007
0.001304746087
0.001294788855
0.001336494294
0.001213132612
0.001063917487
0.00118813591
0.0008640282751
0.0006410313566
0.000778171198
0.0004270450155
0.0002499722009
0.0003298972569
0.0001253711383
5.301193472e-05
7.294835438e-05
2.049824924e-05
1.292464763e-05
1.040428796e-05
2.692450813e-05
4.923171458e-05
4.591966111e-05
5.204072757e-05
4.578929518e-05
4.537130472e-05
4.323100342e-05
3.815860082e-05
4.285008057e-05
3.090564761e-05
2.227204916e-05
2.901463858e-05
1.362309519e-05
6.478636984e-06
9.981626821e-06
1.906878767e-06
2.096702401e-08
7.16739489e-09
5.065455936e-07
5.206032442e-08
9.847052863e-08
5.059303746e-06
4.420184242e-06
4.322670874e-06
4.578734581e-06
5.299361821e-06
4.073510451e-06
6.64772126e-06
8.846784306e-06
6.103711812e-06
1.221370072e-05
1.718606029e-05
1.15715225e-05
2.436630446e-05
3.456618211e-05
2.362066837e-05
4.885004996e-05
6.857522232e-05
4.825318601e-05
9.541297606e-05
0.0001313347891
9.585373907e-05
0.000178536112
0.0002392702079
0.000182121242
0.0003155560399
0.0004087448255
0.0003260859266
0.0005189362739
0.0006443030581
0.000541269555
0.0007804101126
0.0009197131099
0.0008171531047
0.00105147832
0.001162359007
0.00109661522
0.001237822888
0.001264452072
0.001271535841
0.001232850577
0.001140585709
0.001227209238
0.0009942556818
0.0008097075916
0.0009355827814
0.0006097246047
0.0004192902313
0.0005212278256
0.0002595281646
0.0001425011156
0.000188750951
6.909083918e-05
3.115474878e-05
3.985219765e-05
1.733132947e-05
2.091090002e-05
1.671615879e-05
4.207398123e-05
4.757597014e-05
4.895411517e-05
4.632535283e-05
4.028040606e-05
4.38559469e-05
3.418075749e-05
2.690149825e-05
3.259471202e-05
1.925752896e-05
1.216252142e-05
1.667269848e-05
6.446698244e-06
2.556183978e-06
4.26154221e-06
5.569618108e-07
8.502385964e-08
4.144078313e-08
1.25769836e-07
1.499618221e-07
8.126160694e-08
5.740657063e-06
6.395451545e-06
5.110019211e-06
7.788598855e-06
1.005547369e-05
7.2094567e-06
1.349968154e-05
1.853939122e-05
1.285427851e-05
2.573429809e-05
3.582435205e-05
2.506454186e-05
4.976399696e-05
6.874917358e-05
4.934188815e-05
9.422943853e-05
0.0001278896706
9.485651261e-05
0.0001715864736
0.0002272123254
0.0001750124753
0.0002964736405
0.0003805606532
0.0003056996803
0.0004797167649
0.0005927318923
0.0004984954701
0.0007164289952
0.0008452574285
0.0007469753681
0.000971138899
0.001083735155
0.001009759043
0.001171277851
0.001222027452
0.001204258574
0.001226252527
0.001178435828
0.00123201665
0.001079202762
0.0009363617495
0.001041617086
0.0007644653527
0.0005825779664
0.0006910250571
0.0004105881675
0.000264898932
0.0003343884144
0.0001549622326
8.196263073e-05
0.0001078420731
4.022181447e-05
2.087802525e-05
2.521558922e-05
1.686391856e-05
2.868017094e-05
2.500706206e-05
4.429892774e-05
4.2475187e-05
4.554142003e-05
3.736351677e-05
3.057597445e-05
3.568389226e-05
2.35324261e-05
1.664671427e-05
2.150837142e-05
1.051198654e-05
5.599685578e-06
8.486798314e-06
2.187934216e-06
6.287403912e-07
9.44175562e-07
3.613907669e-07
5.823898801e-07
8.689469175e-13
1.462916202e-06
4.42245674e-06
4.261748711e-13
7.940552507e-06
7.83904972e-06
6.620843032e-06
9.084121321e-06
1.136641236e-05
8.402825518e-06
1.485415517e-05
1.991653827e-05
1.416027025e-05
2.706984064e-05
3.698830641e-05
2.639500158e-05
5.053039085e-05
6.875785862e-05
5.014877483e-05
9.294218543e-05
0.0001245447879
9.357700097e-05
0.000165164032
0.0002164247393
0.0001682916875
0.0002798030452
0.0003563752662
0.0002878484656
0.0004464809957
0.0005493470994
0.0004624252113
0.0006626776352
0.0007823234283
0.0006884212131
0.0009021055982
0.001013925824
0.0009353338409
0.001108266983
0.001175147508
0.001139166547
0.001205472433
0.001192560515
0.001216776143
0.001133483395
0.001030022019
0.001108454657
0.0008896754303
0.0007267530422
0.0008299644706
0.0005597850839
0.0004031979044
0.000486119608
0.0002701681159
0.0001683450379
0.0002091940701
9.882040149e-05
5.674644781e-05
6.33327325e-05
3.423769326e-05
2.710119918e-05
1.842495073e-05
3.80522908e-05
4.942982568e-05
3.19167199e-05
4.077859939e-05
3.407591556e-05
3.780719484e-05
2.758555223e-05
2.093087218e-05
2.520539493e-05
1.471944453e-05
9.35749875e-06
1.240140595e-05
5.226236424e-06
2.582913735e-06
3.570824019e-06
1.542216211e-06
1.652617149e-06
9.529615455e-07
2.879050689e-06
6.232380566e-06
2.513338141e-06
1.348366132e-05
2.746006439e-05
1.442330575e-05
5.183396111e-05
8.74022137e-05
6.723592421e-05
1.113096806e-05
1.308664612e-05
9.901069001e-06
1.650106866e-05
2.152744715e-05
1.561013611e-05
2.859387848e-05
3.830371313e-05
2.778862569e-05
5.142871372e-05
6.891634408e-05
5.094425216e-05
9.189004174e-05
0.000121633288
9.236614238e-05
0.00015954165
0.0002070350829
0.0001622364666
0.0002654150839
0.000335669214
0.0002723276186
0.0004182117799
0.0005125789948
0.000431773569
0.000617109606
0.000728670221
0.0006389697055
0.0008424752703
0.0009521183768
0.0008712095601
0.001049881198
0.001127391024
0.001078437044
0.001176621495
0.001191035477
0.001191746026
0.00116648733
0.001101574846
0.00115288978
0.0009979507668
0.0008617938176
0.0009474864069
0.0007054060537
0.0005459202909
0.0006304152404
0.0004031544881
0.0002834229426
0.0003355348028
0.0001944840455
0.0001385069754
0.0001453612284
0.0001181174337
0.0001449447491
8.629525707e-05
0.0002431177488
0.0002671188347
0.0002530321951
0.0002435213239
0.0002073733589
0.0002144607103
0.0001766329581
0.0001296589694
4.611088413e-05
9.156976267e-05
5.956683516e-05
2.072006446e-05
3.591700518e-05
1.972908322e-05
8.520072045e-06
1.01444783e-05
3.714732265e-06
2.466788222e-06
2.689840009e-06
4.715276849e-06
2.838773193e-06
9.58186038e-06
1.830783235e-05
1.164519349e-05
3.224409094e-05
5.239687536e-05
4.060182064e-05
7.727503321e-05
9.988714562e-05
9.811275692e-05
1.913023805e-05
2.386662342e-05
1.766269372e-05
3.070429348e-05
4.012462332e-05
2.954832831e-05
5.279478627e-05
6.955260821e-05
5.203109909e-05
9.139473232e-05
0.0001194551516
9.155375252e-05
0.0001549651687
0.0001991799961
0.0001571091675
0.000253265301
0.0003181374516
0.0002590622601
0.0003942575763
0.0004813899896
0.0004057271248
0.0005783429417
0.000682731931
0.0005969429688
0.000790811283
0.0008974431964
0.0008157205388
0.0009962695887
0.001080142968
0.001022469018
0.001141855665
0.001175093429
0.00115982157
0.001175388056
0.001140597523
0.00117392451
0.001070615005
0.0009672235215
0.001039143305
0.0008363154042
0.000691014547
0.0007746428772
0.0005466811888
0.000411087586
0.0004738572728
0.0002979316901
0.0002118367849
0.0002439990974
0.0001560498935
0.0001251637643
0.0001367513755
0.0001148955421
0.0001195153417
0.0001615178842
0.0001397430143
0.0001401940373
0.0001864003342
0.0001059515386
7.037041077e-05
0.0001158619431
4.195302473e-05
2.538021318e-05
7.205410203e-05
2.109962022e-05
2.14548571e-05
4.77582434e-05
2.004022722e-05
1.682651372e-05
2.196232925e-05
1.221253438e-05
6.195184746e-06
5.213980431e-06
5.712814211e-06
1.117485627e-05
7.497339184e-06
2.03930407e-05
3.36095891e-05
2.579004691e-05
5.059593679e-05
6.904516441e-05
6.211894867e-05
8.293012495e-05
8.213101855e-05
9.307645134e-05
3.330299622e-05
4.24770065e-05
3.199935599e-05
5.47292238e-05
7.081398826e-05
5.371485125e-05
9.162385297e-05
0.0001181742443
9.142750244e-05
0.0001515654018
0.0001929208601
0.0001531229508
0.0002432942133
0.0003035413376
0.0002480183038
0.0003741538752
0.0004550627167
0.0003837521289
0.0005454252388
0.0006434225788
0.0005612028394
0.0007461038412
0.0008493193397
0.0007676395671
0.0009477971708
0.001035399722
0.0009713741146
0.001105595237
0.001152139205
0.001123630287
0.001169921786
0.001155835026
0.00117336639
0.001109395266
0.001032778638
0.001092527313
0.000930245725
0.0008077749066
0.000889037444
0.0006738781314
0.000539640396
0.0006130014195
0.0004142994925
0.0003031913887
0.0003546448375
0.0002172883709
0.0001531495761
0.0001822512451
0.0001086413053
7.619102305e-05
0.0001020767046
5.256068342e-05
4.968287071e-05