/*--------------------------------*- C++ -*----------------------------------*\
| =========                 |                                                 |
| \\      /  F ield         | OpenFOAM: The Open Source CFD Toolbox           |
|  \\    /   O peration     | Version:  2.1.x                                 |
|   \\  /    A nd           | Web:      www.OpenFOAM.org                      |
|    \\/     M anipulation  |                                                 |
\*---------------------------------------------------------------------------*/
FoamFile
{
    version     2.0;
    format      ascii;
    class       surfaceScalarField;
    location    "0.8";
    object      phi;
}
// * * * * * * * * * * * * * * * * * * * * * * * * * * * * * * * * * * * * * //

dimensions      [1 1 -1 0 0 0 0];

internalField   nonuniform List<scalar> 
5536
(
3.839678828e-12
-2.222550379e-12
-2.965148525e-12
1.827392248e-12
-1.403640724e-12
-1.033251217e-13
6.293239746e-16
-3.124355702e-19
-5.495154957e-17
9.851659469e-17
-8.309736484e-18
-2.19755715e-17
-4.682838981e-18
-9.243657774e-16
-1.542882989e-11
-2.820767273e-11
2.777548069e-11
-1.524391406e-11
-2.721277554e-11
1.29222604e-11
1.947340316e-11
-1.130329538e-11
-1.407186061e-11
4.327127712e-12
7.486639267e-12
-5.315231505e-12
-3.891101706e-13
4.126756098e-13
6.469666711e-13
1.632936783e-12
-2.672216253e-12
-3.79115813e-13
1.507807406e-11
1.085387825e-10
-1.163372959e-10
-9.06805344e-19
6.483994073e-10
2.047289783e-09
-2.669851207e-09
-2.708953728e-17
9.07730319e-09
1.77442182e-08
-2.670181671e-08
-1.72094115e-15
7.172532319e-08
1.108328592e-07
-1.818593861e-07
-4.447632578e-13
4.439455609e-07
6.350123738e-07
-1.07539684e-06
3.389917001e-11
3.937955307e-06
-6.560031996e-06
2.64743834e-06
6.921344795e-06
1.131398431e-05
-7.032502987e-06
-2.115088364e-11
-8.76273793e-11
1.669570791e-11
8.722612812e-11
-1.784017559e-11
-5.127724549e-11
1.579564928e-11
4.122254434e-11
-1.284580629e-11
-3.701909512e-11
1.412325479e-11
3.534236058e-11
-9.450675453e-12
-3.015967364e-11
7.796298181e-12
2.181964921e-11
1.843989746e-11
-3.418496385e-11
-1.911875614e-11
7.110260493e-11
1.371681744e-10
-1.769372919e-10
-1.45267467e-10
5.251805653e-10
1.476176272e-09
-1.824244655e-09
-2.13123891e-09
5.792587153e-09
1.232397264e-08
-1.586372649e-08
-1.730799366e-08
3.876623233e-08
6.619821249e-08
-8.718409595e-08
-9.62807091e-08
1.842515865e-07
2.841394607e-07
-3.703051382e-07
-4.479044853e-07
7.105059513e-07
1.042974909e-06
-1.299193295e-06
-1.846013147e-06
2.250456068e-06
3.247824363e-06
-3.633567069e-06
-6.601136414e-06
5.261988576e-06
7.685631215e-06
-6.305533339e-06
-9.618226669e-06
5.065500025e-06
7.469133651e-06
-2.880965077e-06
-1.241378735e-11
1.30633755e-11
9.7027704e-13
-1.395385804e-19
-5.025341639e-27
-2.118522332e-26
2.878117886e-26
1.831163449e-10
-3.765732554e-11
-1.922460001e-10
1.929886288e-11
1.010457854e-10
-1.149844261e-11
-7.142818317e-11
1.182386878e-11
5.397278942e-11
-6.135201291e-12
-4.485438816e-11
8.485061527e-12
3.995086142e-11
1.470474107e-12
-3.562808622e-11
-8.762100737e-12
4.917200203e-11
7.515885833e-11
-9.243716342e-11
-1.08002862e-10
2.201269993e-10
5.275506289e-10
-6.080027931e-10
-9.074026618e-10
1.849811198e-09
4.350552203e-09
-5.214115588e-09
-7.563837405e-09
1.314266771e-08
2.471077211e-08
-3.004245896e-08
-4.164976125e-08
6.348153055e-08
1.048351023e-07
-1.258716146e-07
-1.742672836e-07
2.367129134e-07
3.64850696e-07
-4.248444562e-07
-6.133252139e-07
7.291403555e-07
1.085578382e-06
-1.194497755e-06
-1.83716206e-06
1.85817403e-06
2.716590398e-06
-2.72100295e-06
-4.491765231e-06
3.697320926e-06
5.375388493e-06
-4.549594264e-06
-7.717637311e-06
4.865636843e-06
7.11511433e-06
-4.223827278e-06
-5.498083587e-06
2.651903303e-06
3.905642213e-06
-1.039142608e-06
-2.866697711e-13
3.613053075e-13
1.139684628e-13
-6.392855026e-21
6.654828729e-27
2.714596374e-25
1.863382516e-26
-2.395707564e-25
1.07402478e-11
-1.213459506e-11
6.627740398e-12
-4.642750786e-12
-7.940438609e-12
-8.287327569e-12
-1.386101784e-11
3.434188194e-10
-1.000771653e-11
-1.92430406e-10
1.888092737e-11
1.383061951e-10
-3.960455567e-12
-9.906890732e-11
4.416292095e-12
6.980297402e-11
4.571152614e-12
-5.312717134e-11
-1.845787983e-12
4.594802152e-11
3.233991235e-11
-5.613264843e-11
-5.046339513e-11
9.803710005e-11
1.976292485e-10
-2.109024888e-10
-3.118061638e-10
5.127720374e-10
1.262822047e-09
-1.406095335e-09
-2.383210374e-09
3.746609217e-09
7.894175563e-09
-9.119628923e-09
-1.419630461e-08
2.026388566e-08
3.598662472e-08
-4.167386079e-08
-6.184366555e-08
8.040509373e-08
1.295777184e-07
-1.470794219e-07
-2.177639212e-07
2.568999684e-07
3.93919282e-07
-4.302256976e-07
-6.515836053e-07
6.917365097e-07
1.033470565e-06
-1.066700215e-06
-1.670951088e-06
1.572328915e-06
2.31624639e-06
-2.202803161e-06
-3.556571675e-06
2.909462369e-06
4.254424361e-06
-3.581141363e-06
-5.834261968e-06
4.038888556e-06
5.898556972e-06
-4.068243824e-06
-6.190802556e-06
3.520082258e-06
5.160457087e-06
-2.460169978e-06
-2.704281287e-06
1.251394975e-06
1.83607879e-06
-3.729840973e-07
-1.54581444e-13
7.546969992e-12
8.692556014e-13
-8.21150165e-12
2.123813087e-12
1.135685654e-11
-1.318685852e-11
-3.36217839e-13
1.407864499e-11
-1.416787632e-11
-1.350133627e-11
1.428152249e-11
6.908933597e-12
-1.195547059e-11
-3.876693711e-12
9.4059328e-12
-1.197344013e-12
-7.742572938e-12
-6.363331704e-11
5.098145325e-10
2.465399187e-11
-2.90119927e-10
-8.404745914e-12
2.048912635e-10
2.770653627e-11
-1.422733524e-10
-1.096261661e-11
9.793783552e-11
2.825155448e-11
-6.987833416e-11
-2.309574083e-11
6.595807076e-11
8.504174746e-11
-9.85907843e-11
-1.279727456e-10
1.85510339e-10
3.853124385e-10
-3.923291126e-10
-6.727279924e-10
9.473296567e-10
2.20890623e-09
-2.393557626e-09
-4.235052968e-09
5.734713772e-09
1.138940473e-08
-1.268600764e-08
-2.052860465e-08
2.60095966e-08
4.496685131e-08
-4.994019089e-08
-7.677937191e-08
9.070714764e-08
1.444500405e-07
-1.571034655e-07
-2.386123395e-07
2.609363789e-07
3.977553553e-07
-4.170130022e-07
-6.408966817e-07
6.421395051e-07
9.579524762e-07
-9.523719477e-07
-1.493868538e-06
1.357624845e-06
2.003234473e-06
-1.853466498e-06
-2.958227661e-06
2.410761037e-06
3.536567826e-06
-2.966224539e-06
-4.745542637e-06
3.42023439e-06
5.005389733e-06
-3.6488806e-06
-5.648519341e-06
3.537850808e-06
5.18055392e-06
-3.038539958e-06
-4.159409779e-06
2.225066315e-06
3.262122501e-06
-1.308416335e-06
-1.22701853e-06
5.563964666e-07
8.09011915e-07
-1.336385297e-07
-2.341467125e-12
4.530288343e-11
4.554563779e-12
-4.755157282e-11
3.821692116e-11
5.983315261e-11
4.901645872e-11
-1.530461543e-10
-1.089141239e-13
5.786679885e-10
7.392373323e-10
-1.320765821e-09
-9.839206175e-13
2.818267041e-09
2.929440579e-09
-5.753396175e-09
-7.994454752e-13
1.141872439e-08
1.085046793e-08
-2.229071251e-08
3.980058409e-08
4.322525112e-08
-6.306833715e-11
3.56353813e-10
-4.498175086e-10
3.230717427e-10
-5.68793262e-11
8.88866631e-11
-2.229737472e-10
-4.755476566e-11
1.467204019e-10
7.819641118e-11
-1.029128351e-10
-6.893823037e-11
1.067953301e-10
1.716213723e-10
-1.641562683e-10
-2.453783058e-10
3.028324035e-10
6.425091372e-10
-6.277770048e-10
-1.156389759e-09
1.452820776e-09
3.225126129e-09
-3.393669476e-09
-6.128689925e-09
7.517312947e-09
1.443257857e-08
-1.555005815e-08
-2.581009761e-08
3.013233908e-08
5.142366302e-08
-5.511995217e-08
-8.682443485e-08
9.591940813e-08
1.521574221e-07
-1.59803193e-07
-2.466798109e-07
2.560851496e-07
3.897553451e-07
-3.959357309e-07
-6.120068389e-07
5.915122862e-07
8.811590646e-07
-8.539748772e-07
-1.335235226e-06
1.190045339e-06
1.754767958e-06
-1.597024581e-06
-2.524354182e-06
2.056769551e-06
3.018416391e-06
-2.53022442e-06
-4.003453114e-06
2.95534057e-06
4.328630007e-06
-3.252107591e-06
-5.042553942e-06
3.337743728e-06
4.888278261e-06
-3.152398782e-06
-4.586260034e-06
2.689748837e-06
3.941488826e-06
-2.020471586e-06
-2.500562909e-06
1.286110258e-06
1.879563036e-06
-6.535404515e-07
-5.269182649e-07
2.382932502e-07
3.391437916e-07
-4.840590006e-08
-2.487170091e-11
9.29637142e-10
1.013961102e-10
-1.003269524e-09
-7.328979706e-10
1.846834739e-09
2.029903551e-09
-3.1549679e-09
-2.59640648e-09
5.013435073e-09
5.087140952e-09
-7.518756081e-09
-7.049279576e-09
1.057265233e-08
1.01942108e-08
-1.373933272e-08
-1.560647577e-08
1.598214144e-08
1.505299757e-08
-1.545664055e-08
-1.926473244e-08
9.283078748e-09
-8.102995403e-12
9.971751669e-09
1.921402599e-10
-1.037047846e-09
-1.747779408e-10
5.988648416e-10
1.883997304e-10
-3.790702757e-10
-1.171054919e-10
2.377291554e-10
1.644107158e-10
-1.675569856e-10
-1.455188659e-10
1.716655952e-10
2.908340024e-10
-2.506347263e-10
-4.01527142e-10
4.410298077e-10
9.486550349e-10
-8.893953312e-10
-1.702217118e-09
1.950690364e-09
4.198203592e-09
-4.275763962e-09
-7.858345687e-09
8.938577809e-09
1.686752918e-08
-1.760648124e-08
-2.981931919e-08
3.273535025e-08
5.560370842e-08
-5.778350416e-08
-9.27784358e-08
9.742751581e-08
1.546850604e-07
-1.577379005e-07
-2.467775671e-07
2.462174607e-07
3.754815797e-07
-3.715814285e-07
-5.773863219e-07
5.430484842e-07
8.098354873e-07
-7.689356614e-07
-1.199188369e-06
1.054339561e-06
1.554581063e-06
-1.397926301e-06
-2.19282027e-06
1.78805916e-06
2.623031631e-06
-2.199330246e-06
-3.450525244e-06
2.590758701e-06
3.793671521e-06
-2.907640644e-06
-4.500208235e-06
3.088937851e-06
4.522441904e-06
-3.080928939e-06
-4.585803614e-06
2.85479188e-06
4.181716982e-06
-2.423447773e-06
-3.302551435e-06
1.849797286e-06
2.706841537e-06
-1.236692644e-06
-1.388679832e-06
6.971760124e-07
1.010388736e-06
-3.123761043e-07
-2.157074118e-07
1.005233715e-07
1.355930244e-07
-1.945238505e-08
-3.07997533e-10
3.57967764e-09
6.928218321e-10
-3.949133525e-09
-3.77372599e-09
5.596591567e-09
5.590385257e-09
-7.439275165e-09
-7.422994215e-09
9.329215359e-09
9.005986475e-09
-1.093788328e-08
-1.149795477e-08
1.182067868e-08
1.112152983e-08
-1.146995569e-08
-1.21179062e-08
9.534627188e-09
8.728214361e-09
-6.164201837e-09
-4.375405583e-09
2.386850413e-09
1.983392697e-09
-8.57428295e-14
7.237175946e-12
-1.07838375e-11
5.582938428e-12
-1.540590319e-14
-6.369239656e-10
1.252005485e-09
3.778728972e-10
-5.727747556e-10
-2.233365686e-10
3.767721992e-10
2.856076959e-10
-2.779251968e-10
-2.59017108e-10
2.731603888e-10
4.503814735e-10
-3.66971879e-10
-5.982253346e-10
6.087579278e-10
1.28800403e-09
-1.166220189e-09
-2.254995853e-09
2.410880249e-09
5.061878465e-09
-4.998230825e-09
-9.310113959e-09
9.974672411e-09
1.866450306e-08
-1.891502638e-08
-3.260737931e-08
3.407143162e-08
5.790721172e-08
-5.852969389e-08
-9.554432187e-08
9.634931129e-08
1.535778673e-07
-1.526566892e-07
-2.417426227e-07
2.336287875e-07
3.578131944e-07
-3.462653531e-07
-5.412748811e-07
4.97839822e-07
7.447671305e-07
-6.948736101e-07
-1.083410781e-06
9.415095965e-07
1.390499381e-06
-1.237363914e-06
-1.93145188e-06
1.574890992e-06
2.311238566e-06
-1.93699511e-06
-3.019659217e-06
2.29545725e-06
3.360299184e-06
-2.61151986e-06
-4.030853161e-06
2.839663839e-06
4.155391534e-06
-2.934922206e-06
-4.411741733e-06
2.863678941e-06
4.192222266e-06
-2.615448541e-06
-3.719693784e-06
2.211633944e-06
3.236860758e-06
-1.707003484e-06
-2.175960016e-06
1.180005383e-06
1.719323038e-06
-7.117639163e-07
-7.250344295e-07
3.610655136e-07
5.137783495e-07
-1.460650848e-07
-8.42715252e-08
4.423867043e-08
5.213158076e-08
-1.128198525e-08
-1.362661614e-09
6.19488836e-09
2.780866503e-09
-6.838910552e-09
-7.940670638e-09
8.903779762e-09
9.469475654e-09
-9.407762484e-09
-9.606207089e-09
9.884531429e-09
9.290240288e-09
-9.598057063e-09
-9.655543983e-09
8.447568015e-09
7.709600637e-09
-6.524243435e-09
-5.790993782e-09
4.174840479e-09
3.579978328e-09
-1.975552341e-09
-8.457174319e-10
5.129318646e-10
3.304806189e-10
-4.354294882e-13
1.343944911e-11
-7.914629419e-14
-1.108726432e-11
4.617124116e-12
-1.680922997e-12
-6.81456965e-12
3.57435082e-10
-1.363575336e-09
6.088934652e-10
-3.956249425e-10
4.623362288e-10
-4.336930369e-10
-4.087537985e-10
4.116916677e-10
6.535495681e-10
-5.213811051e-10
-8.433218451e-10
8.133570098e-10
1.670405357e-09
-1.464574285e-09
-2.798484108e-09
2.848087114e-09
5.829751743e-09
-5.603284176e-09
-1.045780632e-08
1.07275829e-08
1.990700878e-08
-1.968495523e-08
-3.432618783e-08
3.452517081e-08
5.874586337e-08
-5.799852238e-08
-9.593590834e-08
9.364972954e-08
1.500001865e-07
-1.458654773e-07
-2.334823889e-07
2.19831795e-07
3.384976051e-07
-3.213238558e-07
-5.054768901e-07
4.562652594e-07
6.855830272e-07
-6.299829621e-07
-9.837391396e-07
8.460156856e-07
1.253119854e-06
-1.10459035e-06
-1.720146423e-06
1.400816152e-06
2.05897303e-06
-1.722906843e-06
-2.674661382e-06
2.050914749e-06
3.003676334e-06
-2.35666626e-06
-3.627956218e-06
2.605673778e-06
3.811974962e-06
-2.761326744e-06
-4.169967396e-06
2.791571912e-06
4.08465218e-06
-2.676790884e-06
-3.891485476e-06
2.417373471e-06
3.537213925e-06
-2.038064817e-06
-2.762082751e-06
1.586282581e-06
2.315854957e-06
-1.123643576e-06
-1.337719423e-06
7.108985485e-07
1.02643586e-06
-3.919184727e-07
-3.600522213e-07
1.824224605e-07
2.498382834e-07
-6.961665627e-08
-3.25290046e-08
2.296049058e-08
2.062602688e-08
-9.82392931e-09
-4.762119493e-09
7.499718807e-09
6.327001137e-09
-8.373567546e-09
-9.586896896e-09
9.014320505e-09
8.80985891e-09
-8.428717821e-09
-8.30393991e-09
7.604682493e-09
6.944399677e-09
-6.272296458e-09
-5.737647737e-09
4.608535818e-09
4.008375985e-09
-2.896709259e-09
-2.065583561e-09
1.451563193e-09
1.113445686e-09
-5.065855404e-10
-1.175091844e-10
9.418816867e-11
2.355001205e-11
-7.860193071e-13
4.183142629e-12
-5.62964228e-13
-2.066302926e-12
3.622857303e-12
-4.670974806e-14
1.991892924e-12
3.32395472e-12
-4.354560811e-12
-8.119568792e-10
1.403607893e-09
-7.484470394e-10
6.166256803e-10
-6.238075871e-10
9.321196891e-10
-7.144399615e-10
-1.141125415e-09
1.052090546e-09
2.1059975e-09
-1.786244132e-09
-3.356623704e-09
3.277024216e-09
6.563120868e-09
-6.138717087e-09
-1.138546382e-08
1.130714232e-08
2.079028973e-08
-2.013278776e-08
-3.523838238e-08
3.447455508e-08
5.860464901e-08
-5.678376037e-08
-9.465118801e-08
9.017285232e-08
1.448922398e-07
-1.384406273e-07
-2.233046014e-07
2.060057832e-07
3.186549928e-07
-2.977367981e-07
-4.709176777e-07
4.186030568e-07
6.317638608e-07
-5.730899337e-07
-8.969089663e-07
7.643308726e-07
1.136081279e-06
-9.930002514e-07
-1.54519134e-06
1.25594082e-06
1.850179391e-06
-1.544892862e-06
-2.39242065e-06
1.845407191e-06
2.705887282e-06
-2.136608454e-06
-3.282896031e-06
2.392122497e-06
3.500719626e-06
-2.58234769e-06
-3.90826789e-06
2.678835011e-06
3.918734385e-06
-2.659426772e-06
-3.914689196e-06
2.514273434e-06
3.678146172e-06
-2.250283133e-06
-3.154757644e-06
1.892807422e-06
2.765527806e-06
-1.482982817e-06
-1.911038985e-06
1.070171755e-06
1.554223157e-06
-7.013350998e-07
-7.776198345e-07
4.100005452e-07
5.820832589e-07
-2.092056723e-07
-1.717228132e-07
9.124760143e-08
1.167787738e-07
-3.443105772e-08
-1.316276145e-08
1.335821997e-08
8.326044026e-09
-7.755642131e-09
-7.000724507e-09
7.593180454e-09
6.963330377e-09
-7.546353951e-09
-7.690626086e-09
7.000451755e-09
6.468427539e-09
-5.927197825e-09
-5.473389715e-09
4.641120399e-09
4.079215585e-09
-3.266660022e-09
-2.633616628e-09
1.994401715e-09
1.619498035e-09
-9.925892752e-10
-5.524016167e-10
3.500763814e-10
2.512049593e-10
-5.561696479e-11
2.140237464e-17
1.510188949e-17
1.40267496e-16
3.208024918e-17
8.205969803e-18
-2.869330133e-17
9.122254776e-17
2.267916772e-17
-6.303577704e-12
5.764794298e-12
1.060940028e-12
-1.812787295e-17
-1.109327359e-09
1.134538497e-09
1.494156413e-09
-1.066444145e-09
-1.510830503e-09
1.385897146e-09
2.623547404e-09
-2.183174052e-09
-3.956255977e-09
3.763763299e-09
7.322559606e-09
-6.698255821e-09
-1.221640933e-08
1.186053206e-08
2.152861047e-08
-2.048970269e-08
-3.568386717e-08
3.426534018e-08
5.797783611e-08
-5.537746908e-08
-9.239171659e-08
8.657316545e-08
1.390980245e-07
-1.311680176e-07
-2.122451479e-07
1.929807423e-07
2.991939647e-07
-2.761931767e-07
-4.381619e-07
3.850639834e-07
5.829515561e-07
-5.234751903e-07
-8.205080117e-07
6.942568784e-07
1.034938148e-06
-8.98376575e-07
-1.397593853e-06
1.133871324e-06
1.674186732e-06
-1.394922431e-06
-2.156905073e-06
1.670931412e-06
2.453695925e-06
-1.946188371e-06
-2.986128565e-06
2.20017746e-06
3.221973215e-06
-2.409013253e-06
-3.650023701e-06
2.548190768e-06
3.728124325e-06
-2.596153863e-06
-3.85016684e-06
2.538431793e-06
3.712987806e-06
-2.371962023e-06
-3.393908871e-06
2.107378295e-06
3.080096521e-06
-1.769405285e-06
-2.386369752e-06
1.393726127e-06
2.029594014e-06
-1.020641741e-06
-1.247148316e-06
6.873293777e-07
9.884268247e-07
-4.19919317e-07
-4.30587387e-07
2.290510849e-07
3.147836343e-07
-1.096709604e-07
-7.824956119e-08
4.576615176e-08
5.108901192e-08
-1.747136461e-08
-5.230868543e-09
7.587709292e-09
3.204491757e-09
-5.692402683e-09
-6.504307031e-09
6.037211585e-09
5.790817382e-09
-5.461682025e-09
-5.232241766e-09
4.485115277e-09
4.061737526e-09
-3.369901237e-09
-2.876986577e-09
2.279268408e-09
1.920919852e-09
-1.343285786e-09
-9.27517387e-10
6.532275542e-10
5.055992912e-10
-2.460448327e-10
-1.43709889e-10
9.317567654e-11
1.20810368e-10
-8.755817163e-11
-7.792092288e-11
1.601178848e-10
2.312958742e-10
-3.651771518e-10
-5.014538375e-10
1.094454112e-09
2.736954885e-09
-3.602464743e-09
-7.19950268e-09
1.007038099e-08
2.053278963e-08
-2.412575523e-08
-6.595690199e-08
7.5047727e-08
4.880949129e-08
2.046202766e-09
-2.249825074e-09
3.534412246e-09
-2.815350141e-09
-4.68107033e-09
4.478555466e-09
8.254447161e-09
-7.498354108e-09
-1.30782104e-08
1.266040563e-08
2.232326631e-08
-2.10926056e-08
-3.598093469e-08
3.431279312e-08
5.727905636e-08
-5.427997864e-08
-8.97844549e-08
8.343347246e-08
1.333112301e-07
-1.246853144e-07
-2.011712216e-07
1.813802318e-07
2.808416874e-07
-2.571642248e-07
-4.076938274e-07
3.557406764e-07
5.389446423e-07
-4.805369327e-07
-7.52957248e-07
6.341670535e-07
9.467944598e-07
-8.177793187e-07
-1.27112303e-06
1.030297187e-06
1.523638421e-06
-1.267591289e-06
-1.957257363e-06
1.521831965e-06
2.237405232e-06
-1.780977492e-06
-2.72925712e-06
2.029085845e-06
2.973473617e-06
-2.24690575e-06
-3.405532108e-06
2.413927981e-06
3.531763675e-06
-2.510858454e-06
-3.738289772e-06
2.522654488e-06
3.685611711e-06
-2.441001332e-06
-3.52529097e-06
2.265367912e-06
3.298841971e-06
-2.00341683e-06
-2.756246437e-06
1.675084703e-06
2.434173948e-06
-1.319005286e-06
-1.704221183e-06
9.807875819e-07
1.416658448e-06
-6.805731776e-07
-7.767381863e-07
4.396836563e-07
6.10581127e-07
-2.669519637e-07
-2.286976094e-07
1.585452825e-07
1.762851592e-07
-1.025195619e-07
-3.014495071e-08
8.299852726e-08
2.440356034e-08
-7.143618721e-08
-1.359159993e-09
3.974313506e-08
-1.235804899e-08
-1.749908113e-08
-4.636617705e-09
7.198696894e-09
3.380521231e-09
-5.071804433e-09
-2.986320311e-09
3.416124006e-09
1.778676342e-09
-2.111269195e-09
-1.231290307e-09
1.195242147e-09
7.717612381e-10
-6.04106777e-10
-2.97848137e-10
2.70582291e-10
2.456457393e-10
-1.237644321e-10
-1.355883106e-10
1.09716278e-10
1.860636219e-10
-2.080742207e-10
-6.894375055e-10
6.079906179e-10
1.73616238e-09
-1.943560748e-09
-6.86605832e-09
5.165876001e-09
1.223475453e-08
-1.127971257e-08
-3.417116866e-08
2.073660413e-08
4.423513648e-08
-3.184311744e-08
-8.342547323e-08
9.235864276e-08
3.910292233e-08
-2.099465826e-09
4.235303833e-09
-4.202314346e-09
6.069198207e-09
-5.64202007e-09
9.42541988e-09
-9.112930559e-09
-1.410328788e-08
1.421261286e-08
2.327602831e-08
-2.240534121e-08
-3.6371361e-08
3.5062003e-08
5.67593385e-08
-5.393580191e-08
-8.729182289e-08
8.119297626e-08
1.279903302e-07
-1.194157144e-07
-1.9074042e-07
1.715547399e-07
2.64091075e-07
-2.408217236e-07
-3.799267087e-07
3.304966556e-07
4.996724694e-07
-4.436427656e-07
-6.932139653e-07
5.826944318e-07
8.697076902e-07
-7.489414561e-07
-1.16168695e-06
9.419136841e-07
1.393567554e-06
-1.158735194e-06
-1.785801858e-06
1.39353982e-06
2.050078061e-06
-1.637142981e-06
-2.505217915e-06
1.8769088e-06
2.751648996e-06
-2.09729385e-06
-3.178414102e-06
2.281184906e-06
3.33799107e-06
-2.411797674e-06
-3.601293104e-06
2.474989315e-06
3.615306988e-06
-2.461431427e-06
-3.583866132e-06
2.36640352e-06
3.439776716e-06
-2.188769464e-06
-3.048761216e-06
1.932542649e-06
2.785707428e-06
-1.616132281e-06
-2.130210372e-06
1.276667119e-06
1.853437973e-06
-9.538633509e-07
-1.172382597e-06
6.816015136e-07
9.679486475e-07
-4.611994041e-07
-4.84189293e-07
3.018038324e-07
3.853915398e-07
-1.974237359e-07
-1.440390205e-07
1.349984356e-07
1.06512993e-07
-9.280801716e-08
1.175576165e-08
4.334103502e-08
-2.308909672e-08
-2.833937958e-08
1.220083839e-08
2.352778212e-08
-1.306462703e-08
-1.730647435e-08
1.233756504e-09
1.223454133e-08
-1.905687236e-09
-8.941099299e-09
-2.20886678e-09
6.11708879e-09
8.673257511e-10
-3.530555029e-09
-1.390500206e-09
1.870057483e-09
1.280769806e-09
-9.374101602e-10
-5.411523319e-10
4.587749687e-10
7.726862074e-10
-1.906916633e-10
-3.1981203e-10
2.04674647e-10
6.188529615e-10
-6.801503679e-10
-3.49320446e-09
2.149271068e-09
5.945939644e-09
-5.255307198e-09
-1.813976301e-08
1.043706893e-08
2.408832848e-08
-1.746358809e-08
-5.008163847e-08
2.461242474e-08
5.277811715e-08
-2.801991248e-08
-6.45609806e-08
4.673314965e-08
-3.356257351e-09
2.219320558e-08
-6.726969075e-09
1.036239415e-08
-9.405940436e-09
1.480718507e-08
-1.568773887e-08
2.524521066e-08
-2.314197468e-08
-3.709720952e-08
3.558919536e-08
5.693391038e-08
-5.368046227e-08
-8.521022247e-08
7.936121128e-08
1.235300722e-07
-1.149550694e-07
-1.813548489e-07
1.631073782e-07
2.492813871e-07
-2.266906549e-07
-3.550874291e-07
3.086543938e-07
4.650402764e-07
-4.117765021e-07
-6.405910632e-07
5.383415979e-07
8.023650171e-07
-6.897247472e-07
-1.066500295e-06
8.659030729e-07
1.280588748e-06
-1.064928242e-06
-1.637231907e-06
1.282437231e-06
1.886607365e-06
-1.511255424e-06
-2.308494424e-06
1.741327321e-06
2.553139699e-06
-1.959896485e-06
-2.968685222e-06
2.152292737e-06
3.149599101e-06
-2.303223584e-06
-3.447821065e-06
2.398625553e-06
3.505899855e-06
-2.427903678e-06
-3.574050939e-06
2.385762814e-06
3.480315507e-06
-2.272575459e-06
-3.255183977e-06
2.092664516e-06
3.034757167e-06
-1.852249391e-06
-2.519111343e-06
1.562853801e-06
2.252196932e-06
-1.249124068e-06
-1.602886964e-06
9.444903084e-07
1.370956121e-06
-6.754608544e-07
-7.937071321e-07
4.661930242e-07
6.416805506e-07
-3.050177375e-07
-3.002140342e-07
1.905571439e-07
2.237577202e-07
-1.104454837e-07
-6.228525988e-08
5.425459018e-08
2.791284915e-08
-1.894542784e-08
2.418956271e-08
1.79262654e-08
-2.297475086e-08
-1.866399047e-08
1.322120139e-08
1.450841595e-08
-1.349494663e-08
-9.398413662e-09
2.372700582e-09
4.877182176e-09
-2.440815651e-09
-2.26789642e-09
-2.928067299e-11
1.235827411e-09
3.947027658e-11
-9.592852147e-10
-8.039914353e-10
8.152069359e-10
5.39852387e-10
-6.432039918e-10
-8.191831723e-10
4.496237362e-10
7.898350626e-10
-3.118142242e-10
-1.179724136e-09
6.103292297e-10
2.08093633e-09
-1.969367569e-09
-9.004898523e-09
4.800160368e-09
1.251177463e-08
-9.294470045e-09
-2.961658883e-08
1.508143416e-08
3.427074157e-08
-2.077802602e-08
-5.279189157e-08
2.388775486e-08
5.064339515e-08
-2.163815756e-08
-3.485031484e-08
2.735654793e-08
-4.223114892e-09
1.343119679e-08
-1.599163556e-08
2.433420447e-08
-2.460548629e-08
3.617568653e-08
-3.902786696e-08
5.794546361e-08
-5.300444959e-08
-8.418505969e-08
7.688081639e-08
1.202584113e-07
-1.099005396e-07
-1.734821049e-07
1.54429708e-07
2.367713281e-07
-2.130330281e-07
-3.33431082e-07
2.883503438e-07
4.351552108e-07
-3.829039614e-07
-5.946780853e-07
4.988301513e-07
7.440743581e-07
-6.375434221e-07
-9.837653579e-07
7.993348468e-07
1.18262711e-06
-9.829349022e-07
-1.507968037e-06
1.185094622e-06
1.743775053e-06
-1.400242772e-06
-2.135093781e-06
1.620321628e-06
2.375842025e-06
-1.834848901e-06
-2.776632885e-06
2.031395653e-06
2.972447883e-06
-2.19636419e-06
-3.289509703e-06
2.31628887e-06
3.385448617e-06
-2.379385153e-06
-3.512835156e-06
2.377368272e-06
3.471686359e-06
-2.307085355e-06
-3.340809575e-06
2.171466251e-06
3.164933663e-06
-1.979173643e-06
-2.787943489e-06
1.742785685e-06
2.5268757e-06
-1.476732743e-06
-1.985317937e-06
1.196977871e-06
1.72300929e-06
-9.216421174e-07
-1.153219615e-06
6.689765987e-07
9.517901622e-07
-4.558941587e-07
-5.086017106e-07
2.972472204e-07
3.936726053e-07
-1.788785568e-07
-1.586056428e-07
9.607766784e-08
1.065747666e-07
-4.21499752e-08
-1.019224187e-08
1.352343935e-08
2.538010613e-09
-4.615679259e-09
2.033203454e-08
8.342602944e-09
-1.492787239e-08
-1.62205232e-08
1.37024978e-08
1.508186751e-08
-1.363166835e-08
-1.095590113e-08
2.481612373e-09
6.120163696e-09
-2.444368662e-09
-2.764429416e-09
-1.225823908e-10
1.22755248e-09
2.046713311e-10
-6.917917056e-10
-4.430671194e-10
5.063258998e-10
4.222220117e-10
-4.218031575e-10
-7.906125418e-10
3.93369017e-10
8.808005332e-10
-5.797300872e-10
-3.361090379e-09
1.566519924e-09
5.012441158e-09
-4.003570163e-09
-1.625543353e-08
7.879274637e-09
2.002315351e-08
-1.280108419e-08
-3.777861046e-08
1.76562647e-08
4.013433035e-08
-2.067426464e-08
-4.725187551e-08
2.008236496e-08
4.343463879e-08
-1.542005064e-08
-2.283895842e-08
2.017197181e-08
-4.052299921e-09
8.775184846e-09
-3.616437741e-08
5.082371944e-08
-5.571705059e-08
7.530653623e-08
-8.290405056e-08
1.152021677e-07
-1.041435673e-07
-1.667272307e-07
1.444266176e-07
2.256836532e-07
-1.982336552e-07
-3.150644352e-07
2.677119639e-07
4.100150827e-07
-3.549972995e-07
-5.554120132e-07
4.619797996e-07
6.946207866e-07
-5.900164405e-07
-9.125574772e-07
7.395952511e-07
1.098607818e-06
-9.099366589e-07
-1.395882719e-06
1.098633118e-06
1.619648067e-06
-1.301341671e-06
-1.982501958e-06
1.511584412e-06
2.21830878e-06
-1.720758208e-06
-2.602174238e-06
1.918373902e-06
2.807923584e-06
-2.092637194e-06
-3.135271647e-06
2.231293482e-06
3.261225815e-06
-2.32281024e-06
-3.436356395e-06
2.357771864e-06
3.442998904e-06
-2.33016693e-06
-3.387288817e-06
2.238715155e-06
3.265515761e-06
-2.087469458e-06
-2.962733894e-06
1.885878749e-06
2.743496055e-06
-1.647706396e-06
-2.263440371e-06
1.388992042e-06
2.007145394e-06
-1.126057378e-06
-1.473735251e-06
8.735040577e-07
1.245506029e-06
-6.432121711e-07
-7.715605813e-07
4.447318527e-07
6.157633876e-07
-2.858757021e-07
-2.967922972e-07
1.702437223e-07
2.179350021e-07
-8.918456453e-08
-6.701009334e-08
3.766417967e-08
4.011202252e-08
-1.007074956e-08
-2.485067672e-10
6.175067919e-11
2.748719251e-11
6.656806123e-11
9.441038896e-09
-9.669336569e-10
-1.115076547e-08
-2.315499324e-09
1.268106388e-08
1.3561141e-08
-1.005658783e-08
-1.183970234e-08
2.318870781e-09
7.323507865e-09
-2.078366461e-09
-3.49303383e-09
-2.949893535e-10
1.489839483e-09
4.013303248e-10
-7.315067213e-10
-4.375914308e-10
4.721398661e-10
4.77780223e-10
-3.954474658e-10
-1.097674345e-09
5.154066753e-10
1.473016995e-09
-1.186744162e-09
-6.991951774e-09
3.050085951e-09
9.233811956e-09
-6.330204536e-09
-2.364091635e-08
1.061776125e-08
2.69848728e-08
-1.505014927e-08
-4.153010868e-08
1.832501342e-08
4.223805574e-08
-1.913906396e-08
-3.977651547e-08
1.691869848e-08
3.670824568e-08
-1.244571411e-08
-1.861065713e-08
1.767262125e-08
-4.598352203e-09
7.714997696e-09
-6.495778278e-08
-6.380233743e-08
1.191666184e-07
-1.588955985e-07
2.213362563e-07
-1.756513324e-07
-3.000073288e-07
2.438562239e-07
3.91423582e-07
-3.26839262e-07
-5.22940596e-07
4.271837556e-07
6.543413062e-07
-5.46641889e-07
-8.525414744e-07
6.860422706e-07
1.028065731e-06
-8.450844661e-07
-1.299901976e-06
1.0220489e-06
1.513273473e-06
-1.213580042e-06
-1.849380337e-06
1.414477007e-06
2.080038255e-06
-1.617649257e-06
-2.445249173e-06
1.814194456e-06
2.657506803e-06
-1.993915535e-06
-2.987668015e-06
2.145863e-06
3.136963854e-06
-2.259264296e-06
-3.34786055e-06
2.324545669e-06
3.394379047e-06
-2.334538684e-06
-3.407629982e-06
2.285408802e-06
3.333749575e-06
-2.177723252e-06
-3.112927207e-06
2.016695916e-06
2.935984439e-06
-1.811873551e-06
-2.51513973e-06
1.576429098e-06
2.284384068e-06
-1.32537391e-06
-1.764579318e-06
1.073510155e-06
1.539394736e-06
-8.339362202e-07
-1.043062493e-06
6.171006702e-07
8.678337772e-07
-4.305017043e-07
-4.8517301e-07
2.793261725e-07
3.788916138e-07
-1.660457937e-07
-1.563064057e-07
8.867897899e-08
1.098914856e-07
-4.003326518e-08
-2.316844946e-08
1.382228098e-08
1.324275304e-08
-3.385068592e-09
-1.458795944e-10
1.175741916e-09
1.12367938e-09
7.513882881e-10
7.5444699e-09
2.998392691e-09
-5.254356001e-09
-1.000783005e-08
8.657038488e-09
1.324446256e-08
-7.245737126e-09
-1.214111086e-08
1.702112822e-09
8.19132589e-09
-1.196055189e-09
-4.211494666e-09
-5.312844136e-10
1.814962041e-09
6.918674161e-10
-8.327941267e-10
-5.429957286e-10
5.155733391e-10
6.38833358e-10
-4.914749189e-10
-2.032829781e-09
8.690909529e-10
2.792018784e-09
-2.16407412e-09
-1.165698772e-08
4.767078632e-09
1.417689274e-08
-8.445478381e-09
-2.995821102e-08
1.248165403e-08
3.250525725e-08
-1.584815556e-08
-4.248230617e-08
1.750787763e-08
4.236690061e-08
-1.690920383e-08
-3.463726332e-08
1.442992265e-08
3.352361411e-08
-1.143079258e-08
-1.76097395e-08
2.661838286e-08
-1.568163946e-08
9.692480451e-09
2.581188283e-07
-2.946081598e-07
3.684360709e-07
-3.225353162e-07
-4.985523871e-07
4.087964482e-07
6.19399388e-07
-5.165653136e-07
-8.034522607e-07
6.44859588e-07
9.68935551e-07
-7.926565161e-07
-1.219180191e-06
9.58304588e-07
1.422972222e-06
-1.138984899e-06
-1.73477948e-06
1.330470612e-06
1.960006159e-06
-1.526817272e-06
-2.306153214e-06
1.720525826e-06
2.522547688e-06
-1.902736441e-06
-2.849812221e-06
2.063714207e-06
3.017481307e-06
-2.193405253e-06
-3.252649242e-06
2.2824979e-06
3.332668577e-06
-2.323300886e-06
-3.401200207e-06
2.310482889e-06
3.370118905e-06
-2.242241278e-06
-3.225756252e-06
2.120610808e-06
3.088636769e-06
-1.951787475e-06
-2.741132889e-06
1.745667184e-06
2.534171413e-06
-1.514764292e-06
-2.056026043e-06
1.272752608e-06
1.833568664e-06
-1.033022051e-06
-1.333281516e-06
8.070831992e-07
1.146071399e-06
-6.033086246e-07
-7.190337819e-07
4.272626666e-07
5.938803644e-07
-2.823436036e-07
-2.948311427e-07
1.704721799e-07
2.294852258e-07
-9.181087154e-08
-7.57972368e-08
4.32919201e-08
5.117305875e-08
-1.744570608e-08
-7.65387094e-09
5.753198831e-09