/*--------------------------------*- C++ -*----------------------------------*\
| =========                 |                                                 |
| \\      /  F ield         | OpenFOAM: The Open Source CFD Toolbox           |
|  \\    /   O peration     | Version:  2.1.x                                 |
|   \\  /    A nd           | Web:      www.OpenFOAM.org                      |
|    \\/     M anipulation  |                                                 |
\*---------------------------------------------------------------------------*/
FoamFile
{
    version     2.0;
    format      ascii;
    class       volVectorField;
    location    "0.8";
    object      Uf;
}
// * * * * * * * * * * * * * * * * * * * * * * * * * * * * * * * * * * * * * //

dimensions      [0 1 -1 0 0 0 0];

internalField   nonuniform List<vector> 
2828
(
(-0.1637186165 0 -0.1547180599)
(-0.1952165844 0 -0.135989061)
(-0.2730402452 0 -0.1364916318)
(-0.2528018583 0 0.0358914394)
(-0.7126699665 0 -0.02268732216)
(-0.1219097406 0 -0.2640736635)
(-0.1509153747 0 -0.2956056105)
(-0.1852304341 0 -0.3372192793)
(-0.2173524378 0 -0.3466387597)
(-0.2259403019 0 -0.3058249942)
(0.2911242972 0 -0.4292321459)
(4.350773364 0 -3.000317057)
(11.18011129 0 -7.701857643)
(14.88919864 0 -10.25705714)
(15.86815347 0 -10.93358262)
(16.07845968 0 -11.07817059)
(16.2064759 0 -11.07832119)
(-0.07365243938 0 -0.2453808057)
(-0.08199599614 0 -0.254740001)
(-0.1002446751 0 -0.3009089555)
(-0.1197494025 0 -0.351530319)
(-0.104122977 0 -0.3877865997)
(1.171806294 0 -1.045767944)
(2.91758474 0 -2.033516023)
(7.794932895 0 -5.367571619)
(12.33367441 0 -8.490042431)
(14.74170007 0 -10.14665191)
(15.6433958 0 -10.76611451)
(15.94851028 0 -10.96998808)
(16.08699788 0 -11.02807979)
(16.18546522 0 -11.02387222)
(0.1152822755 0 -3.514313146)
(-0.1857768006 0 -0.505838629)
(-0.04925749638 0 -0.2729439855)
(-0.04868330927 0 -0.2702073009)
(-0.05215266278 0 -0.300691992)
(-0.05273346929 0 -0.3527644892)
(0.2930295147 0 -0.4859033869)
(1.41657251 0 -1.024781182)
(4.274945271 0 -2.948993003)
(8.698678489 0 -5.988416355)
(12.34799377 0 -8.498109498)
(14.42900303 0 -9.92888582)
(15.37205388 0 -10.5758935)
(15.76291657 0 -10.83854143)
(15.94415687 0 -10.94083579)
(16.05898889 0 -10.96253177)
(16.11804482 0 -10.95259257)
(0.6024718054 0 -4.038959448)
(0.1351434553 0 0.2450234949)
(-1.067128788 0 0.7582212687)
(-0.8099145365 0 0.8316873972)
(-0.02457067618 0 -0.3143055413)
(-0.01660849065 0 -0.2901492531)
(-0.002860676811 0 -0.3079101228)
(0.05347772612 0 -0.3450237721)
(0.7795567004 0 -0.6243782118)
(1.936672594 0 -1.350070402)
(5.018677921 0 -3.458136709)
(8.930196955 0 -6.147278544)
(12.11042386 0 -8.334041287)
(14.06232763 0 -9.675445664)
(15.06717035 0 -10.36433434)
(15.54338369 0 -10.68589733)
(15.7772654 0 -10.8301167)
(15.91177226 0 -10.88512856)
(15.9937061 0 -10.88510679)
(15.97436905 0 -10.84684155)
(0.6817283109 0 -2.180462252)
(-0.5506362064 0 -0.8582621441)
(-0.9780238601 0 0.994832582)
(-0.7648512962 0 1.106778101)
(-0.6296788587 0 1.068945742)
(0.01507572116 0 -0.3583515657)
(0.03037609265 0 -0.3143577345)
(0.05589228337 0 -0.30873531)
(0.2018769717 0 -0.3496051899)
(0.9346635805 0 -0.690149842)
(2.355976257 0 -1.631392947)
(5.371153818 0 -3.700186094)
(8.889949017 0 -6.119724274)
(11.78101414 0 -8.107384495)
(13.67001383 0 -9.40514206)
(14.73641195 0 -10.13596758)
(15.29456701 0 -10.51417247)
(15.58648486 0 -10.70164301)
(15.75127333 0 -10.78758498)
(15.84935662 0 -10.8116971)
(15.87565892 0 -10.78666072)
(15.67851408 0 -10.64554505)
(0.7596553521 0 -1.478912237)
(0.0184769083 0 -0.006440685103)
(0.7109695384 0 -0.7717625256)
(1.154101586 0 -1.253726557)
(1.393076863 0 -1.509546368)
(1.489614011 0 -1.575224023)
(0.06462320341 0 -0.4178305529)
(0.07448934717 0 -0.3504571863)
(0.1104596138 0 -0.3192697436)
(0.3979500803 0 -0.4025616905)
(1.0722147 0 -0.7672928672)
(2.632636844 0 -1.819984856)
(5.492874888 0 -3.78427821)
(8.710778755 0 -5.996979825)
(11.40574753 0 -7.849607338)
(13.26146431 0 -9.124214595)
(14.38590637 0 -9.89470992)
(15.02063427 0 -10.32584703)
(15.3728881 0 -10.55700053)
(15.57485021 0 -10.67459928)
(15.69404949 0 -10.72274094)
(15.74560548 0 -10.71819797)
(15.67026624 0 -10.6393401)
(15.04634393 0 -10.21824609)
(0.4587660104 0 -0.5293104699)
(0.7326222931 0 -0.7899684879)
(1.015328846 0 -1.093360159)
(1.227690864 0 -1.313865839)
(1.355796798 0 -1.432156031)
(1.419332512 0 -1.464223367)
(0.1170941224 0 -0.4756105165)
(0.1213706088 0 -0.4150296677)
(0.1742182561 0 -0.3538823649)
(0.515214157 0 -0.4518254398)
(1.188890716 0 -0.842544)
(2.78496434 0 -1.9248092)
(5.472378208 0 -3.770958422)
(8.45269957 0 -5.820268806)
(11.00394809 0 -7.573932661)
(12.84069877 0 -8.835320489)
(14.01907509 0 -9.642756182)
(14.72538681 0 -10.12335666)
(15.13810336 0 -10.39760271)
(15.38163711 0 -10.54780702)
(15.52691887 0 -10.62051597)
(15.60057722 0 -10.63668046)
(15.57939743 0 -10.5907562)
(15.30429457 0 -10.3887936)
(13.66435271 0 -9.284518094)
(0.6824531046 0 -0.7647333617)
(0.884611524 0 -0.9491236328)
(1.057543154 0 -1.12738499)
(1.173395677 0 -1.239119811)
(1.220132555 0 -1.273073651)
(1.12447703 0 -1.15867162)
(-0.1288983086 0 0.09188664944)
(0.1797862077 0 -0.4962635569)
(0.2449031393 0 -0.4111179646)
(0.5827927909 0 -0.4952322358)
(1.278429845 0 -0.904198832)
(2.845617873 0 -1.967569606)
(5.360921746 0 -3.69542133)
(8.146603873 0 -5.610813124)
(10.58596082 0 -7.287440812)
(12.41073144 0 -8.540472798)
(13.638301 0 -9.381651568)
(14.41160618 0 -9.908523082)
(14.8840126 0 -10.22489896)
(15.17172797 0 -10.40826995)
(15.34699799 0 -10.50634925)
(15.44374699 0 -10.54339449)
(15.45738751 0 -10.52229601)
(15.31135081 0 -10.40076902)
(14.63339324 0 -9.934241682)
(10.85102614 0 -7.386090109)
(0.8072116402 0 -0.6905047006)
(0.910377339 0 -0.965217033)
(1.004180414 0 -1.061300473)
(1.038488969 0 -1.086803838)
(0.9708231115 0 -1.007953617)
(0.6100693452 0 -0.6293415429)
(-0.1075039451 0 0.05799818586)
(-0.4751937905 0 0.5226661282)
(0.2741169411 0 -0.5658976819)
(0.3214596424 0 -0.4935659718)
(0.6477373902 0 -0.5500015083)
(1.351397476 0 -0.9581789798)
(2.853313824 0 -1.974770068)
(5.198694482 0 -3.58531698)
(7.81404787 0 -5.38344483)
(10.15902762 0 -6.995096658)
(11.97427152 0 -8.241498994)
(13.24591611 0 -9.112940598)
(14.08157041 0 -9.682859048)
(14.61232673 0 -10.04015922)
(14.94573111 0 -10.25694535)
(15.15387234 0 -10.38110862)
(15.27552726 0 -10.43941626)
(15.31746918 0 -10.44010703)
(15.23957449 0 -10.36273383)
(14.86812734 0 -10.09643866)
(13.39150057 0 -9.096350869)
(6.450963994 0 -4.464526764)
(0.8487236634 0 -0.8218401931)
(0.8664188477 0 -0.9125059747)
(0.8869004299 0 -0.9300009707)
(0.834881914 0 -0.8692873363)
(0.642479937 0 -0.6663584765)
(0.2209134505 0 -0.2309919077)
(-0.09631365032 0 0.07905689263)
(0.5021687515 0 0.4540257989)
(0.4171407112 0 -0.6212105713)
(0.7065384156 0 -0.6207625311)
(1.414663904 0 -1.009269138)
(2.834042803 0 -1.964517438)
(5.015766481 0 -3.461414627)
(7.474543549 0 -5.151610205)
(9.731698908 0 -6.702781966)
(11.5349734 0 -7.940893736)
(12.84448165 0 -8.838348294)
(13.73750995 0 -9.44786461)
(14.32467847 0 -9.844561627)
(14.70444347 0 -10.09470109)
(14.94754472 0 -10.24550588)
(15.09592032 0 -10.32551956)
(15.16398213 0 -10.34677296)
(15.13158569 0 -10.30039007)
(14.90431289 0 -10.12812852)
(14.13192261 0 -9.597261255)
(11.32628651 0 -7.711828414)
(2.860593702 0 -2.133539927)
(0.7723654895 0 -0.7968197974)
(0.7669650287 0 -0.8026838522)
(0.723454863 0 -0.754353133)
(0.5938615041 0 -0.6169651533)
(0.3414276212 0 -0.3536505325)
(-0.1211442847 0 0.09007971345)
(-0.04924701166 0 0.158941865)
(0.2200714969 0 0.267984874)
(0.7638029437 0 -0.7374288174)
(1.476194191 0 -1.066858389)
(2.808953675 0 -1.951831022)
(4.833171244 0 -3.338356626)
(7.143799088 0 -4.926172214)
(9.313330368 0 -6.416950493)
(11.09815427 0 -7.642311688)
(12.4374995 0 -8.560264477)
(13.38193066 0 -9.205244754)
(14.02277367 0 -9.639315206)
(14.44882185 0 -9.92239035)
(14.72828833 0 -10.10016969)
(14.90499874 0 -10.20229432)
(14.99871573 0 -10.24364002)
(15.00175701 0 -10.22248633)
(14.85907119 0 -10.10591079)
(14.38893877 0 -9.775172192)
(12.9759321 0 -8.817908203)
(8.59440226 0 -5.886980138)
(1.163800768 0 -1.003813842)
(0.6828509831 0 -0.6997148907)
(0.6364600717 0 -0.6607584496)
(0.5387134556 0 -0.5586638715)
(0.369340894 0 -0.3792548174)
(0.3555338513 0 -0.3140592261)
(0.8539550185 0 -0.6952093255)
(1.964814563 0 -1.025045872)
(2.992831506 0 -1.599716135)
(3.269182343 0 -1.776895768)
(1.532824612 0 -1.144305283)
(2.808530281 0 -1.958929214)
(4.675622337 0 -3.233437833)
(6.837174865 0 -4.717801543)
(8.913864852 0 -6.144480059)
(10.67039809 0 -7.350294754)
(12.02941233 0 -8.281743218)
(13.01790921 0 -8.957111229)
(13.70862954 0 -9.425836615)
(14.17998682 0 -9.740925755)
(14.49644811 0 -9.945745967)
(14.70169355 0 -10.07029775)
(14.81468952 0 -10.13142601)
(14.82688343 0 -10.13205198)
(14.74177983 0 -10.05330643)
(14.44625698 0 -9.820548397)
(13.47854563 0 -9.164581716)
(10.0368748 0 -6.929926303)
(1.79292472 0 -1.906558054)
(-0.2559027653 0 -0.4790664201)
(0.4250112388 0 -0.4736678531)
(0.4551154673 0 -0.5211101909)
(0.346964697 0 -0.378237207)
(0.2514118207 0 -0.2426690162)
(0.4269421407 0 -0.3053138313)
(1.326284581 0 -0.6448112331)
(2.528266118 0 -1.262189142)
(3.122613806 0 -1.610192786)
(3.276872556 0 -1.714057862)
(1.904439081 0 -1.401663499)
(2.89650808 0 -2.03337905)
(4.580015675 0 -3.172548238)
(6.573841466 0 -4.539866689)
(8.54397562 0 -5.89277973)
(10.25887193 0 -7.069801009)
(11.6254165 0 -8.006370637)
(12.64910015 0 -8.705985296)
(13.3846338 0 -9.20579552)
(13.89937563 0 -9.551384985)
(14.25301903 0 -9.78308768)
(14.48901621 0 -9.931589133)
(14.62925333 0 -10.02128093)
(14.66149379 0 -10.07594329)
(14.54788119 0 -10.04504596)
(14.34310936 0 -9.712550284)
(13.68489553 0 -9.314578333)
(11.25868624 0 -7.759146317)
(4.652006898 0 -3.742818273)
(-0.74521961 0 -0.713435076)
(-0.5265896236 0 -0.7256098003)
(-0.08000642824 0 -0.6467904777)
(0.1119064539 0 -0.4068785839)
(0.1797506727 0 -0.2273665763)
(0.2693543065 0 -0.1570192524)
(0.6474975682 0 -0.3098712669)
(1.871335831 0 -0.8642886819)
(2.757864019 0 -1.333092683)
(3.158472173 0 -1.565544533)
(3.212549777 0 -1.54887463)
(2.975257843 0 -2.103586096)
(4.515911645 0 -3.136220802)
(6.358841513 0 -4.396182797)
(8.210802136 0 -5.66689071)
(9.869453954 0 -6.804925089)
(11.2304016 0 -7.737535098)
(12.2793006 0 -8.454496211)
(13.05345555 0 -8.981053603)
(13.60863448 0 -9.354939364)
(13.99873302 0 -9.612504322)
(14.26609384 0 -9.782597637)
(14.43772811 0 -9.886186865)
(14.52221119 0 -9.942967424)
(14.50549681 0 -9.973509531)
(14.35614545 0 -9.863452583)
(13.89208839 0 -9.273185583)
(12.38397931 0 -8.479474548)
(8.559061743 0 -6.100426952)
(2.111359654 0 -2.264332005)
(-0.7950528728 0 -0.6273189246)
(-0.6381451503 0 -0.7350642251)
(-0.3478675484 0 -0.7036570234)
(-0.00899347626 0 -0.4803402804)
(0.202238789 0 -0.2938352684)
(0.342738387 0 -0.1935571814)
(1.113105685 0 -0.4704973981)
(2.208417023 0 -0.9899806073)
(2.873046646 0 -1.339296366)
(3.129717171 0 -1.474261586)
(2.970699557 0 -1.291846808)
(4.455667626 0 -3.106520182)
(6.134009489 0 -4.247592716)
(7.896550093 0 -5.454873316)
(9.499040261 0 -6.553650487)
(10.84599702 0 -7.47640962)
(11.91129699 0 -8.204591873)
(12.71759213 0 -8.753363187)
(13.30954235 0 -9.152904558)
(13.73462293 0 -9.435229034)
(14.03270201 0 -9.627255934)
(14.23143701 0 -9.74818194)
(14.34390383 0 -9.809355433)
(14.36539552 0 -9.816428942)
(14.26838162 0 -9.761456202)
(13.97207208 0 -9.518556525)
(13.07739611 0 -8.781190384)
(10.79059028 0 -7.47021265)
(6.522081238 0 -4.834952865)
(0.6155856255 0 -1.175073268)
(-0.6322051733 0 -0.3287995515)
(-0.5751612144 0 -0.7157062239)
(-0.2862717616 0 -0.7330803006)
(0.08217063327 0 -0.5397450732)
(0.2871525058 0 -0.3233280208)
(0.4941217769 0 -0.2379109858)
(1.512491024 0 -0.6199273504)
(2.419364387 0 -1.050086671)
(2.917621064 0 -1.303625086)
(3.048096577 0 -1.35060832)
(2.72094291 0 -1.050177139)
(6.03121661 0 -4.185786155)
(7.582175199 0 -5.244184029)
(9.131946787 0 -6.305461949)
(10.46684199 0 -7.219429547)
(11.54489288 0 -7.956200626)
(12.37848943 0 -8.523764492)
(13.00361844 0 -8.946370731)
(13.4618367 0 -9.252036208)
(13.79011047 0 -9.465699554)
(14.01572782 0 -9.606026867)
(14.15353644 0 -9.683942823)
(14.20249495 0 -9.70098835)
(14.13776597 0 -9.645278258)
(13.8927042 0 -9.475949813)
(13.30688301 0 -9.062921235)
(11.95126192 0 -8.143726108)
(9.264601429 0 -6.496239469)
(5.267441313 0 -4.002029577)
(0.3491454272 0 0.9053930734)
(-0.2277647281 0 0.3332974529)
(-0.513783722 0 -0.6870810069)
(-0.2193279754 0 -0.7472764365)
(0.1549247011 0 -0.5871289514)
(0.3753105969 0 -0.3407908928)
(0.7625547766 0 -0.310205378)
(1.80427947 0 -0.7204534684)
(2.552242002 0 -1.068962984)
(2.920610235 0 -1.244162427)
(2.942131711 0 -1.216016019)
(2.580207117 0 -0.9026808593)
(7.246160172 0 -5.023509163)
(8.734013835 0 -6.037305728)
(10.08034372 0 -6.958245158)
(11.17632823 0 -7.706883915)
(12.03597117 0 -8.292222439)
(12.69176893 0 -8.736030118)
(13.18130231 0 -9.06361643)
(13.53898029 0 -9.298187052)
(13.79141479 0 -9.457880437)
(13.95467351 0 -9.554199339)
(14.03131576 0 -9.590361652)
(14.00405682 0 -9.55754616)
(13.82143587 0 -9.425975428)
(13.37282152 0 -9.126261567)
(12.45836331 0 -8.51920776)
(10.74330292 0 -7.387644357)
(7.855060156 0 -5.551460834)
(3.950191656 0 -3.01072596)
(0.3925778376 0 0.4535373938)
(-0.5533472051 0 -0.4862286143)
(-0.40369469 0 -0.6922516692)
(-0.1298592899 0 -0.7483055074)
(0.2334434091 0 -0.6212861375)
(0.4772175563 0 -0.3507237243)
(1.067416639 0 -0.4018454077)
(2.017563466 0 -0.7836778915)
(2.636414028 0 -1.063063362)
(2.900658261 0 -1.173710833)
(2.834275581 0 -1.085340397)
(2.514885546 0 -0.8127934233)
(9.695047472 0 -6.699896407)
(10.80577635 0 -7.457090501)
(11.6902951 0 -8.059100332)
(12.37471411 0 -8.522502526)
(12.8937736 0 -8.870593745)
(13.27983548 0 -9.125165607)
(13.55873632 0 -9.30377273)
(13.74734762 0 -9.418305605)
(13.8512155 0 -9.473688953)
(13.86010586 0 -9.465311928)
(13.7380813 0 -9.373210379)
(13.40567758 0 -9.150657083)
(12.72755416 0 -8.709148154)
(11.5437406 0 -7.916885388)
(9.640185264 0 -6.605028097)
(6.410647713 0 -4.513079152)
(2.358925508 0 -1.641241016)
(-0.021362389 0 0.04988445859)
(-0.4453043858 0 -0.4360286558)
(-0.2890292759 0 -0.6694158831)
(-0.01881779405 0 -0.7454458756)
(0.3287351461 0 -0.6423037035)
(0.6109100617 0 -0.3633172503)
(1.334453125 0 -0.4846330859)
(2.17650535 0 -0.8217858725)
(2.690905503 0 -1.044217741)
(2.876066066 0 -1.106718149)
(2.776050356 0 -1.00070564)
(2.572006204 0 -0.832482998)
(10.44553298 0 -7.218139355)
(11.34983322 0 -7.830602931)
(12.05558489 0 -8.308233879)
(12.600644 0 -8.67414182)
(13.01331006 0 -8.94724512)
(13.31787319 0 -9.143981886)
(13.53139047 0 -9.276221716)
(13.66156115 0 -9.350046893)
(13.70363202 0 -9.363925937)
(13.63421494 0 -9.305060667)
(13.39935855 0 -9.142406743)
(12.89973029 0 -8.816134369)
(12.00375282 0 -8.232799992)
(10.62408438 0 -7.287655135)
(8.586328847 0 -5.839513392)
(4.811804221 0 -3.371910601)
(1.2135982 0 -0.7506114069)
(-0.2857787319 0 -0.01968064291)
(-0.3386825853 0 -0.3879449613)
(-0.16552968 0 -0.6544963504)
(0.1129406275 0 -0.7392714706)
(0.4428177235 0 -0.6526171717)
(0.7765639204 0 -0.3861208865)
(1.554961344 0 -0.5512064387)
(2.300024592 0 -0.8446664422)
(2.730624363 0 -1.021619745)
(2.85977501 0 -1.051925637)
(2.757052031 0 -0.9505678163)
(2.628250717 0 -0.8516105015)
(11.05555769 0 -7.636321069)
(11.74416596 0 -8.100342803)
(12.30542694 0 -8.477198008)
(12.74063143 0 -8.765670552)
(13.06912948 0 -8.979012101)
(13.30668689 0 -9.128111123)
(13.46202404 0 -9.219503411)
(13.5340864 0 -9.25370073)
(13.50791526 0 -9.222596144)
(13.34736845 0 -9.104970718)
(12.98361037 0 -8.859476311)
(12.30685118 0 -8.417374257)
(11.19347396 0 -7.686746103)
(9.575450958 0 -6.580060948)
(7.246673638 0 -4.952546036)
(3.350924239 0 -2.360296846)
(-0.05237843551 0 0.06865315913)
(-0.1931649748 0 0.1167188813)
(-0.2330448965 0 -0.3691912928)
(-0.02715594116 0 -0.6520621222)
(0.2533336112 0 -0.7369656867)
(0.5721829393 0 -0.6568415845)
(0.9602904111 0 -0.4196435019)
(1.740241298 0 -0.6045930934)
(2.40149732 0 -0.8591967819)
(2.764225841 0 -1.000369051)
(2.855921346 0 -1.012107428)
(2.772316737 0 -0.9329265693)
(12.01279953 0 -8.284677098)
(12.46371663 0 -8.58263075)
(12.81289651 0 -8.809819907)
(13.07309369 0 -8.974334088)
(13.25246584 0 -9.082223439)
(13.35209396 0 -9.135147203)
(13.36249094 0 -9.128146904)
(13.25862194 0 -9.046380118)
(12.99232631 0 -8.860220118)
(12.48269013 0 -8.518973025)
(11.61248395 0 -7.946530818)
(10.252007 0 -7.048156835)
(8.300094889 0 -5.730229091)
(5.57368451 0 -3.863454144)
(2.126338501 0 -1.487645382)
(-0.1272827262 0 0.07450335973)
(-0.2274090408 0 -0.08308260024)
(-0.1345817344 0 -0.4169307368)
(0.1314913832 0 -0.6643848639)
(0.3998330032 0 -0.7400954092)
(0.7120574174 0 -0.6601571872)
(1.147747969 0 -0.4599199466)
(1.900291325 0 -0.6484922346)
(2.489091645 0 -0.8694323999)
(2.796092929 0 -0.982541138)
(2.861923474 0 -0.9839723193)
(2.79674188 0 -0.9268674007)
(12.18448593 0 -8.400939365)
(12.54963839 0 -8.637868785)
(12.83009179 0 -8.815518654)
(13.03254667 0 -8.938579257)
(13.15803256 0 -9.008652848)
(13.20070584 0 -9.022982483)
(13.14289499 0 -8.97115524)
(12.949868 0 -8.831554503)
(12.56231058 0 -8.566517015)
(11.88920122 0 -8.117122469)
(10.80649014 0 -7.400503579)
(9.17490116 0 -6.31642896)
(6.877154425 0 -4.768451938)
(3.87339216 0 -2.718499403)
(-0.2501384243 0 -0.8492420165)
(-0.9212441076 0 -1.436711363)
(-0.9153505283 0 -1.550025984)
(-0.6458564939 0 -1.34582302)
(0.3250498491 0 -0.6914427982)
(0.556000284 0 -0.7478982096)
(0.8585336366 0 -0.6656981351)
(1.329443578 0 -0.5027546177)
(2.040622719 0 -0.6851836467)
(2.566305175 0 -0.8771714702)
(2.827079921 0 -0.9684432308)
(2.875486387 0 -0.9664817099)
(12.56231672 0 -8.643639617)
(12.80199415 0 -8.789624009)
(12.951984 0 -8.874987363)
(13.02360826 0 -8.907924514)
(13.0049818 0 -8.881549872)
(12.87101965 0 -8.779934661)
(12.57632068 0 -8.57446927)
(12.05258607 0 -8.220451699)
(11.20074938 0 -7.652212839)
(9.893774971 0 -6.782759952)
(7.997742548 0 -5.514529437)
(5.410108497 0 -3.77389974)
(1.352513279 0 -1.66422615)
(-1.033099856 0 -1.640799462)
(-1.111765311 0 -1.839043634)
(-1.111188898 0 -1.861156251)
(-1.034645678 0 -1.754892277)
(-0.805030507 0 -1.508645981)
(0.740421399 0 -0.801803773)
(1.018790528 0 -0.6798218813)
(1.500309272 0 -0.5449560981)
(2.162824054 0 -0.7155850899)
(2.632638929 0 -0.8826007748)
(2.858022496 0 -0.9577621492)
(2.892291922 0 -0.9590391899)
(12.58407145 0 -8.65207598)
(12.73492289 0 -8.738330604)
(12.82244408 0 -8.790980416)
(12.81334012 0 -8.792884481)
(12.71749659 0 -8.707144202)
(12.54221767 0 -8.541459997)
(12.13403835 0 -8.272047564)
(11.46089257 0 -7.819706881)
(10.41974589 0 -7.124553672)
(8.888437284 0 -6.100994216)
(6.757663056 0 -4.669342762)
(3.82494784 0 -2.786108983)
(-0.6428645695 0 -1.445937755)
(-1.057127564 0 -1.847047951)
(-1.092959844 0 -1.983971398)
(-1.072972252 0 -1.986322076)
(-1.028067071 0 -1.891031633)
(-0.9666944218 0 -1.709142436)
(-0.8840861478 0 -1.432942033)
(1.036361464 0 -0.6644370187)
(1.714033623 0 -0.5951846823)
(2.273646156 0 -0.7414286041)
(2.688008139 0 -0.8861172599)
(2.88285909 0 -0.9514282822)
(12.63384353 0 -8.670424952)
(12.66330168 0 -8.709345044)
(12.60733255 0 -8.700125836)
(12.461035 0 -8.48721417)
(12.15634317 0 -8.230312029)
(11.62083497 0 -7.922268299)
(10.7880284 0 -7.363911785)
(9.553200675 0 -6.537642125)
(7.812007661 0 -5.368591041)
(5.517303088 0 -3.820202348)
(2.657683044 0 -1.964098661)
(-0.6158607607 0 -1.276025764)
(-0.8878745982 0 -1.812325383)
(-0.8917335462 0 -1.972786396)
(-0.8358766777 0 -1.98598347)
(-0.7708157511 0 -1.90280405)
(-0.7129784985 0 -1.739260295)
(-0.6726595141 0 -1.502578443)
(-0.6672244344 0 -1.208192663)
(-0.4580150738 0 0.1071902422)
(2.182991063 0 -0.879195553)
(2.758442433 0 -0.9010433536)
(12.50367127 0 -8.591124256)
(12.42389078 0 -8.527252684)
(12.21792501 0 -8.241025675)
(11.71108196 0 -7.920694718)
(11.03727577 0 -7.525338321)
(10.03822648 0 -6.855545247)
(8.612532158 0 -5.899077844)
(6.688525103 0 -4.602433504)
(4.30515988 0 -2.986661105)
(1.693943192 0 -1.215756352)
(0.1476074307 0 -0.1421051706)
(-0.4573080166 0 -1.477885804)
(-0.5484577389 0 -1.883949433)
(-0.5014767056 0 -1.958507616)
(-0.4345561809 0 -1.899494434)
(-0.3775136634 0 -1.744456021)
(-0.3345452666 0 -1.499826466)
(-0.2783529193 0 -1.15218405)
(-0.01416465068 0 -0.6441208553)
(0.70147536 0 0.9694407024)
(11.81133118 0 -7.974050125)
(11.20082323 0 -7.601921515)
(10.3874506 0 -7.084130372)
(9.218583405 0 -6.300043162)
(7.609967601 0 -5.218417977)
(5.532449698 0 -3.814352975)
(3.095124487 0 -2.155923725)
(0.1115842721 0 -0.06341289383)
(0.1846394862 0 -0.07377222684)
(0.4472161519 0 -0.1115791308)
(0.3353329998 0 -1.142860315)
(0.267268082 0 -1.697583348)
(0.2349413287 0 -1.8900605)
(0.1648361311 0 -1.883392866)
(0.05519030003 0 -1.776833895)
(-0.1086660851 0 -1.639281287)
(-0.3140116152 0 -1.53044751)
(10.67099263 0 -7.261871909)
(9.661438322 0 -6.593670938)
(8.335873461 0 -5.703235595)
(6.55578768 0 -4.504445987)
(4.337676885 0 -3.000875565)
(1.831269478 0 -1.282003267)
(0.1115877297 0 -0.03366047886)
(0.1799996782 0 -0.04680090397)
(0.4277249523 0 -0.01710192188)
(1.279281496 0 -0.1981763957)
(0.4874048761 0 -1.115643447)
(0.3942037241 0 -1.681513079)
(0.3860739293 0 -1.819307679)
(0.3375782173 0 -1.851606431)
(5.552081922 0 -3.824932831)
(3.074806623 0 -2.136756024)
(0.1687757601 0 -0.05734201263)
(0.1720684271 0 0.02397829202)
(0.1456093861 0 -0.007956885048)
(0.3545629818 0 -0.006642126999)
(1.31817526 0 -0.08491269984)
(0.7408889063 0 0.05425967009)
(0.5342813566 0 -1.193945611)
(-0.1811513558 0 -0.3068044382)
(-0.1966213924 0 -0.3157681616)
(-0.2136501522 0 -0.3167375012)
(-0.2287785736 0 -0.3091236298)
(-0.2347421052 0 -0.2916403663)
(-0.2330707229 0 -0.2647594185)
(-0.2035377486 0 -0.2345147168)
(-0.1655216411 0 -0.15647169)
(-0.1761400273 0 -0.1349968445)
(-0.1811968525 0 -0.1596497919)
(-0.208963993 0 -0.1715110544)
(-0.2275302647 0 -0.1392806016)
(-0.2566650356 0 -0.1836499187)
(-0.3372313619 0 -0.1310282819)
(-0.3825846092 0 -0.08925928535)
(-0.1576646389 0 0.09450845005)
(-0.624141466 0 -0.1141507344)
(-0.9432605675 0 -0.249268599)
(-0.3620926686 0 -0.09972394143)
(-0.2795696274 0 -0.07615179542)
(0.2074558531 0 -0.3052039218)
(-1.215126629 0 -0.5273459011)
(-5.129653765 0 -6.00517753)
(-0.0935980915 0 -0.2443079067)
(-0.1008891817 0 -0.254148893)
(-0.1111410922 0 -0.2706548265)
(-0.1258453091 0 -0.3030800625)
(-0.1345993589 0 -0.2796946903)
(-0.1396876353 0 -0.3278908801)
(-0.1519762909 0 -0.3480326149)
(-0.1680441482 0 -0.3136138531)
(16.09012331 0 -11.05443101)
(16.15716726 0 -11.04997959)
(16.14807398 0 -11.06950109)
(16.20101629 0 -11.05394626)
(16.26120975 0 -11.07211091)
(16.24567315 0 -11.11007674)
(0.474835302 0 -0.7909113638)
(0.0144898868 0 -1.546378911)
(-0.0632638095 0 -0.2548356176)
(-0.06191893796 0 -0.2558207263)
(-0.0646247182 0 -0.2632710814)
(-0.07691654762 0 -0.2472744369)
(-0.1968986983 0 0.3315158625)
(-1.348671766 0 0.6981298841)
(-1.324817098 0 0.6470306099)
(-1.084047609 0 0.7184080465)
(-0.03875496022 0 -0.3009521932)
(-0.03527263554 0 -0.2917281735)
(-0.04930852228 0 -0.2799366503)
(-0.03355451234 0 -0.2805753473)
(-0.03292751735 0 -0.2800411597)
(-0.04968112561 0 -0.2690626917)
(-1.068777328 0 0.87148031)
(-0.9066265338 0 0.9161939114)
(-0.9180804074 0 0.7908653252)
(-0.7717034572 0 0.9189951772)
(-0.6954869681 0 0.9279504087)
(-0.01187843204 0 -0.3510777902)
(-0.009488755234 0 -0.3365473666)
(-0.02751004185 0 -0.3270822927)
(-0.7218655987 0 1.42061655)
(-1.037442785 0 0.9852041947)
(0.03802755546 0 -0.4002758777)
(0.03960427085 0 -0.3851998119)
(0.01277428635 0 -0.3739866612)
(1.478333119 0 -1.53047677)
(0.7282849616 0 0.8386606663)
(0.08735526809 0 -0.4478039662)
(0.0858006051 0 -0.4272624266)
(0.09708152539 0 -0.3792685641)
(0.06817318872 0 -0.3806751909)
(1.304864335 0 -1.344772803)
(-0.1647350837 0 0.2702135887)
(-0.06183900325 0 0.5501446532)
(-0.1142027058 0 0.1631030636)
(0.150907982 0 -0.4885912657)
(0.1518819951 0 -0.4473153846)
(0.1150590806 0 -0.4578703543)
(-0.1272686888 0 0.0664350932)
(-0.104874031 0 0.07566538786)
(-0.0974465407 0 0.09146093982)
(0.2257211378 0 -0.5325580953)
(0.1833074911 0 -0.5152338004)
(-0.578038525 0 0.7076770772)
(0.3386355289 0 -0.5946321824)
(0.3619911174 0 -0.5542607242)
(0.2709341951 0 -0.546556178)
(0.2975105766 0 0.2879480793)
(0.2865406083 0 0.2667433115)
(0.4501263456 0 0.4082692471)
(0.5252556809 0 -0.6713308677)
(0.5296490637 0 -0.657300865)
(0.7348682925 0 -0.670319203)
(0.5057961601 0 -0.5857499518)
(2.785868329 0 -1.51798083)
(3.113739838 0 -1.729124622)
(0.3527511344 0 0.3210336477)
(3.247606515 0 -1.804058363)
(0.8438341573 0 -0.8062874632)
(0.6613956512 0 -0.7287881359)
(3.277612687 0 -1.744670061)
(1.511489374 0 -1.158806046)
(1.557922744 0 -1.18733136)
(1.133746419 0 -0.9467751976)
(3.273584829 0 -1.641172196)
(2.377067895 0 -0.600767795)
(2.38031286 0 -1.708915123)
(2.944231491 0 -2.076367959)
(2.249850706 0 -1.619321249)
(3.104615667 0 -1.427152292)
(2.280901421 0 -0.6130576945)
(2.312806798 0 -0.6014752669)
(3.677771584 0 -2.57720936)
(4.446173714 0 -3.09455421)
(3.673721905 0 -2.568179498)
(2.835451853 0 -1.160985616)
(2.276375656 0 -0.6478354993)
(2.269495889 0 -0.6288393169)
(5.258140677 0 -3.655404039)
(6.029662495 0 -4.180383876)
(5.243166214 0 -3.640376344)
(2.636292742 0 -0.9648041506)
(2.330599539 0 -0.6917126244)
(2.298184209 0 -0.6691144743)
(6.723065069 0 -4.661249965)
(7.416348071 0 -5.134587351)
(6.766194754 0 -4.686874834)
(2.544164176 0 -0.8562078678)
(2.406457651 0 -0.7342397305)
(2.368750983 0 -0.7142040537)
(8.486426391 0 -5.872231535)
(7.949152232 0 -5.503569451)
(2.541083731 0 -0.8217543182)
(2.438895012 0 -0.750290389)
(9.606260594 0 -6.64245036)
(9.076919433 0 -6.2783229)
(2.602909209 0 -0.8430802363)
(10.00075547 0 -6.915911872)
(10.75088946 0 -7.426747601)
(11.18662507 0 -7.722179607)
(10.92863768 0 -7.544063069)
(2.761457918 0 -0.9387198116)
(2.698222741 0 -0.8893643451)
(2.674930218 0 -0.8831108985)
(11.2932013 0 -7.801358806)
(11.58383871 0 -7.996497668)
(11.41104368 0 -7.876882477)
(2.779197667 0 -0.9236621775)
(2.740771228 0 -0.9003231534)
(2.721507353 0 -0.895451619)
(11.87729511 0 -8.197753771)
(11.73994662 0 -8.102106326)
(2.811704861 0 -0.9294308177)
(12.26113974 0 -8.453791885)
(12.41016434 0 -8.549168487)
(12.379302 0 -8.52866342)
(2.883470002 0 -0.9595378531)
(2.865863404 0 -0.948872376)
(2.854941006 0 -0.9481909496)
(12.43704924 0 -8.565871891)
(12.57464109 0 -8.648473776)
(12.68516565 0 -8.715416116)
(12.69793169 0 -8.726611013)
(2.867975611 0 -0.9536574843)
(2.900679699 0 -0.9607729852)
(2.894156322 0 -0.9626130894)
(12.63229331 0 -8.674435457)
(12.65507669 0 -8.692344724)
(2.885239769 0 -0.9486811522)
(2.905776697 0 -0.9591163157)
(12.58978814 0 -8.644786047)
(12.64666138 0 -8.682753183)
(2.768748906 0 -0.9379058445)
(2.836047179 0 -0.9271845441)
(12.37539985 0 -8.48807057)
(12.46133084 0 -8.566607521)
(12.29187787 0 -8.407460382)
(12.17579789 0 -8.276390208)
(12.34849111 0 -8.417551585)
(-0.535069532 0 -0.7752200548)
(-0.8580228741 0 -0.07713386998)
(0.1545767602 0 -0.800562634)
(0.5733064035 0 0.7489249751)
(2.535414683 0 -0.498218511)
(12.02152022 0 -8.160222028)
(11.61919093 0 -7.855451576)
(11.29985861 0 -7.645899724)
(11.54579552 0 -7.787797967)
(0.1483480964 0 -1.772145016)
(0.07417527717 0 -1.728851091)
(-0.2135981013 0 -1.594126887)
(10.21632589 0 -6.965046286)
(9.365514912 0 -6.393876266)
(8.683160357 0 -5.935383171)
(9.061006288 0 -6.190196951)
(7.891630803 0 -5.404646558)
(6.976449419 0 -4.788561868)
(7.503594823 0 -5.143637134)
(0.4729197605 0 -1.44222917)
(0.4328172359 0 -1.606777208)
(0.3878619745 0 -1.770407302)
(0.4146936612 0 -1.72286564)
(0.4037634035 0 -1.80509089)
(0.3741576671 0 -1.841060742)
(0.2997174988 0 -1.8484617)
(6.602095845 0 -4.535457164)
(4.364159919 0 -3.018853667)
(0.8226122041 0 -0.5364602851)
(1.626379054 0 -1.127037104)
(0.1908300235 0 -0.05026026829)
(0.2895714867 0 -0.05633341746)
(0.2053431911 0 -0.04587487113)
(0.2153100456 0 0.0578361647)
(0.1341486949 0 0.01560420317)
(0.1307276966 0 0.002514438446)
(0.1287416484 0 0.002565411456)
(0.2171012434 0 -0.0596443012)
(0.2470056537 0 -0.08663741675)
(0.3192067237 0 -0.004093653283)
(0.6743161417 0 -0.0791540648)
(0.7527557604 0 -0.09173290147)
(1.16904171 0 -0.07498844417)
(1.377673527 0 -0.02747903873)
(0.4661329623 0 -0.5532919495)
(-0.1621865224 0 -0.3614670265)
(-0.1719099248 0 -0.3686657434)
(-0.2013280346 0 -0.3448446721)
(-0.1094246263 0 -0.4095013288)
(0.8837753331 0 -1.091918993)
(-0.2324306178 0 -0.3440479348)
(1.726308856 0 -1.575369468)
(2.062821898 0 -1.476621185)
(-0.1493963245 0 -0.1740551557)
(3.869648296 0 -2.673214291)
(6.672483195 0 -4.596312044)
(2.155436156 0 -1.507733471)
(9.592869995 0 -6.605547894)
(12.04594312 0 -8.293970388)
(7.783705239 0 -5.362773148)
(13.78842224 0 -9.493294173)
(14.85569498 0 -10.22780162)
(13.56273477 0 -9.343062716)
(15.44770676 0 -10.63512765)
(15.76379939 0 -10.85239323)
(15.55603317 0 -10.71710216)
(15.93116883 0 -10.96645417)
(16.02533012 0 -11.02617713)
(16.00936387 0 -11.03031237)
(-0.06960992982 0 -0.2775721799)
(-0.07635908175 0 -0.2990897609)
(-0.09024395484 0 -0.2763551513)
(-0.08270826808 0 -0.3253377564)
(-0.08669794377 0 -0.3520634866)
(-0.1112430598 0 -0.3279309667)
(-0.08327904703 0 -0.3744867284)
(0.02764809394 0 -0.4241412681)
(-0.1233218265 0 -0.3687019124)
(0.7497322601 0 -0.7346027421)
(1.213638582 0 -0.9442632162)
(0.3232984368 0 -0.6133258032)
(2.033615181 0 -1.431596039)
(3.6828561 0 -2.546616184)
(1.603610874 0 -1.197711602)
(5.949085599 0 -4.099201193)
(8.384678917 0 -5.772727857)
(5.165665225 0 -3.561579252)
(10.60187209 0 -7.297671778)
(12.39379979 0 -8.530304372)
(10.29941396 0 -7.090384554)
(13.70615827 0 -9.432953392)
(14.59492599 0 -10.04408283)