/*--------------------------------*- C++ -*----------------------------------*\
| =========                 |                                                 |
| \\      /  F ield         | OpenFOAM: The Open Source CFD Toolbox           |
|  \\    /   O peration     | Version:  2.1.x                                 |
|   \\  /    A nd           | Web:      www.OpenFOAM.org                      |
|    \\/     M anipulation  |                                                 |
\*---------------------------------------------------------------------------*/
FoamFile
{
    version     2.0;
    format      ascii;
    class       volScalarField;
    location    "1.8";
    object      deltaf;
}
// * * * * * * * * * * * * * * * * * * * * * * * * * * * * * * * * * * * * * //

dimensions      [0 1 0 0 0 0 0];

internalField   nonuniform List<scalar> 
2828
(
4.278857128e-06
4.087081849e-06
3.413877483e-06
4.260600228e-06
1.257086207e-05
0.0001027827296
7.860798157e-06
6.067219655e-06
4.114923351e-06
2.753532078e-06
2.314267721e-06
2.410752509e-06
5.580223264e-06
9.123311316e-06
1.352472741e-05
1.818947643e-05
1.988480179e-05
0.0003825289223
0.0002629868623
0.0001991160956
5.367302399e-06
4.995909559e-06
3.832371064e-06
2.369337169e-06
2.014290931e-06
2.531816528e-06
4.497176104e-06
5.738533982e-06
8.903275936e-06
1.352593312e-05
2.059663917e-05
1.582763322e-05
2.680825549e-06
0.0005773972391
0.0003715113681
7.928852169e-05
5.113680304e-06
4.508418694e-06
4.1229131e-06
3.749289415e-06
2.783853478e-06
2.352671091e-06
2.373273965e-06
2.102361692e-06
3.804301104e-06
6.101276292e-06
9.681700526e-06
1.677746885e-05
2.262939089e-05
6.788765448e-06
2.031588883e-06
3.021015325e-06
0.0007872026886
0.0006793195853
0.0003454004724
7.274816928e-06
6.841906299e-06
7.011640993e-06
6.976674737e-06
4.826286697e-06
3.562054854e-06
1.597846189e-05
1.575427068e-06
8.280389605e-07
2.766102996e-06
4.509282417e-06
7.203911965e-06
1.270281111e-05
1.867226432e-05
1.02618308e-05
3.364971305e-06
5.323860207e-06
9.100444071e-06
0.0005866408927
0.0008023587405
0.0006718159347
7.377530294e-05
1.122605625e-05
3.037323029e-05
4.525349172e-05
3.098585205e-05
1.578409126e-05
3.462169994e-05
7.448708842e-05
7.718786948e-07
4.715590676e-07
3.634498604e-06
3.76533057e-06
5.624815568e-06
9.678142154e-06
1.359767133e-05
9.821188757e-06
5.630685967e-06
5.893021078e-06
7.366543711e-06
8.959655482e-06
0.0004043412482
0.0003125176316
0.0006376008583
0.000577530003
3.566324457e-05
5.522998885e-05
9.975964088e-05
6.736575278e-05
3.17092703e-05
2.579626066e-05
6.855911836e-05
6.29192822e-05
2.689820375e-07
3.446172524e-07
1.229406586e-05
5.968379663e-06
4.624476823e-06
7.443100849e-06
8.906102183e-06
5.861881484e-06
4.084049863e-06
3.556479323e-06
3.642325619e-06
4.471935023e-06
0.0004329001298
0.0003993517525
0.0002526437574
0.0006360627599
0.0005780803322
6.926462283e-05
9.726252418e-05
8.483308774e-05
3.292387476e-05
1.55853663e-05
2.302476206e-05
5.278968193e-05
3.427276446e-05
1.872712131e-07
2.71592623e-07
2.463219275e-05
2.147685435e-05
4.705017764e-06
5.790164598e-06
5.232100774e-06
2.846017067e-06
2.424753115e-06
2.413540189e-06
2.597803752e-06
3.171930001e-06
4.69545206e-06
0.0007005994232
0.0006034488535
0.0005234818408
0.0006861420785
0.0007045801234
3.981837273e-05
5.855896384e-05
4.073745305e-05
1.399854756e-05
9.434693749e-06
1.824498761e-05
3.34455991e-05
1.720621166e-05
2.046189898e-06
3.603479689e-07
2.276016254e-05
3.292877797e-05
8.221031564e-06
4.494600543e-06
3.074992437e-06
1.711539058e-06
1.822825148e-06
2.191752708e-06
2.653337022e-06
3.191466629e-06
3.83321531e-06
4.279759198e-06
0.0001993490318
0.0003005182314
0.0004441034136
0.000603960193
0.000751007495
3.414043308e-05
1.282933711e-05
2.171120609e-05
2.477457885e-05
8.612792584e-06
7.123386861e-06
1.34343575e-05
1.925776287e-05
8.88051721e-06
9.50720268e-06
1.309548515e-06
1.386074266e-05
2.304609229e-05
1.097115565e-05
3.417853393e-06
2.109249726e-06
1.34688716e-06
1.768509029e-06
2.496309709e-06
3.430668157e-06
4.181471548e-06
3.374460263e-06
2.289189677e-06
0.0001523609467
0.0001567829527
0.000172672537
0.0003106544594
0.0004316480684
7.685153376e-06
3.532620161e-06
5.716433623e-06
2.081102528e-05
6.993815918e-06
5.73992708e-06
9.51600613e-06
1.051161964e-05
4.737727314e-06
1.085728335e-05
2.503290222e-06
6.011384719e-06
9.035134312e-06
6.606675305e-06
2.494761938e-06
1.52898205e-06
1.454292344e-06
2.577075685e-06
4.036021945e-06
6.309284731e-06
9.152777978e-06
5.174284973e-06
2.343353717e-06
0.000153687013
0.000140498182
0.0001386073759
0.0001662951059
0.0002449858177
2.065673175e-06
1.25976592e-06
1.174662066e-06
6.764688131e-06
6.438203927e-06
5.217973987e-06
7.082888807e-06
5.348133529e-06
2.241930368e-06
8.053469779e-06
2.283129546e-06
1.652460461e-06
1.760984174e-06
1.578326743e-06
1.178251174e-06
1.347461397e-06
2.917371321e-06
5.389154917e-06
8.550531138e-06
1.342047246e-05
2.081754987e-05
2.741683675e-05
2.715146336e-05
1.79565289e-05
0.0001779302606
0.0001643048798
0.0001536743304
0.0001253217903
8.688328926e-05
6.259441448e-07
1.159297178e-06
1.879085931e-06
2.190251803e-06
4.01158274e-06
4.290574782e-06
1.263597743e-05
2.671137078e-06
7.180447856e-07
4.700311178e-06
1.011981458e-06
5.455112876e-07
5.68503765e-07
6.248361666e-07
5.501338811e-07
2.991769452e-06
7.495750585e-06
7.738274531e-06
1.02300337e-05
1.377663746e-05
1.577466702e-05
1.957556051e-05
2.950455484e-05
3.623474522e-05
0.0001466137095
0.0001553215662
0.0001509392503
0.0001315555806
9.156106209e-05
1.781070006e-06
9.884294562e-07
1.055315637e-06
1.109216961e-06
1.181945354e-06
1.34993815e-06
2.941775257e-06
8.174352839e-05
8.086896455e-06
1.204667565e-07
1.813818425e-06
2.984658259e-07
2.036495281e-07
3.13233369e-07
4.91474955e-07
6.955034127e-07
5.767726673e-06
3.812966752e-05
6.569526206e-05
4.162477779e-05
2.36359051e-05
3.154345395e-05
3.20075376e-05
1.942780134e-05
2.059433551e-05
8.681917816e-05
0.0001069183768
0.0001057064824
8.209848523e-05
1.79178223e-05
1.294740344e-07
2.735157896e-07
5.327174881e-07
4.832649531e-07
3.990819883e-07
2.481785242e-07
3.76716276e-07
1.520388323e-06
3.430426598e-08
1.273576911e-08
1.394202503e-07
1.012963683e-07
7.755098646e-08
7.941032182e-08
1.215546259e-07
2.84412903e-07
4.5805533e-06
1.24584198e-05
4.407444259e-06
4.01899132e-06
6.675448345e-06
1.121874471e-05
1.640446054e-05
1.306861388e-05
1.144807773e-05
5.721958493e-05
5.496329726e-05
5.213716154e-05
4.239653842e-05
6.141844706e-07
1.347903629e-07
3.91231838e-07
9.685227313e-07
7.054204207e-07
1.497007329e-07
4.802226081e-08
6.66658281e-08
1.989742761e-08
3.122037281e-09
5.008363349e-09
2.487616078e-08
1.722475195e-07
3.525297348e-08
5.966222998e-08
3.957525491e-09
1.505371622e-07
4.138050587e-07
7.658794129e-08
1.923369407e-08
7.978965948e-09
6.735254509e-09
9.397048853e-09
4.141643491e-08
2.751790979e-07
1.106830583e-06
4.311741921e-05
2.431035238e-05
1.781355792e-05
1.12822918e-05
3.074999538e-07
1.46476533e-07
1.624962769e-07
1.550232611e-07
1.891055154e-08
4.288260399e-09
9.784923191e-09
2.50390918e-08
1.249407375e-07
1.121135691e-07
2.393858797e-07
1.635840204e-06
1.040653098e-06
4.628313406e-08
7.920487507e-08
1.041811993e-09
1.662449049e-07
9.177887393e-08
1.476666857e-08
5.968039175e-09
1.688960419e-09
1.294548669e-09
1.626742259e-09
6.192345195e-09
5.271053061e-08
2.914948916e-07
7.024156778e-05
2.932789145e-05
7.770253408e-06
3.367403202e-06
1.115917738e-06
5.736753454e-07
2.357508277e-07
9.15150128e-08
3.105165209e-08
2.341252057e-08
2.221281984e-08
6.237559804e-08
2.503400957e-07
6.045060701e-07
1.980671458e-06
4.724009033e-06
3.943005444e-06
8.314260328e-08
3.130603906e-07
4.685702494e-10
1.72512721e-08
6.604577517e-09
3.032481945e-09
1.566537319e-09
1.871020712e-09
4.06286659e-08
5.116464466e-07
1.997214081e-06
4.060309116e-06
2.041285445e-06
0.0001475290625
6.860207622e-05
2.28244026e-05
9.116090279e-06
4.473956984e-06
2.859364874e-06
2.297391834e-06
1.914115904e-06
1.288916913e-06
3.0069483e-07
3.571009417e-07
6.111951173e-07
1.366963507e-06
2.768065433e-06
3.51666875e-06
2.964544049e-06
1.188584931e-07
1.543924e-06
6.494114202e-10
8.817293842e-09
5.253746672e-09
2.111659037e-09
1.118124192e-09
2.828343191e-09
2.017663764e-08
2.796061705e-07
1.410606713e-06
2.846397058e-06
2.542220393e-06
0.000105081357
1.199180293e-05
2.609270618e-06
1.343987807e-06
9.896042487e-07
8.47353147e-07
7.749670774e-07
7.459401052e-07
7.720516666e-07
1.292959079e-06
1.529226076e-06
1.546744765e-06
2.189195299e-06
2.435093124e-06
1.671530028e-06
1.013832452e-06
1.586834326e-07
4.404848161e-06
1.349275383e-08
5.217195684e-09
2.24948019e-09
7.435986193e-10
6.693617815e-10
2.551782308e-09
1.984679602e-08
1.462979466e-07
6.130573791e-07
1.409729397e-06
2.006632757e-06
4.012286067e-06
1.244737258e-06
6.3666479e-07
4.919160649e-07
4.474609495e-07
4.393285608e-07
4.278151334e-07
4.63031331e-07
9.124566781e-07
4.187737604e-06
3.987455668e-06
3.1031927e-06
3.103160146e-06
2.403441292e-06
1.174494248e-06
5.828610683e-07
2.042341811e-07
6.547105203e-06
8.59956934e-07
2.19404334e-07
1.036161189e-07
2.865560682e-08
2.433221778e-06
2.010677987e-06
3.717572373e-07
3.799973119e-07
1.333361778e-06
3.173036934e-06
3.884827393e-06
2.211544882e-06
1.482263862e-06
1.191100476e-06
1.271964829e-06
1.754230559e-06
2.533447373e-06
4.559492055e-06
1.430053491e-05
1.537195888e-05
5.576392291e-06
4.434240333e-06
2.459616009e-06
1.239778608e-06
6.287685268e-07
4.276499067e-07
9.304853121e-06
2.900845106e-06
7.683823181e-07
2.925210198e-07
7.434819275e-08
1.667619232e-05
5.121658347e-05
4.51680826e-05
1.005724147e-05
9.515256408e-06
1.123237549e-05
8.31671644e-06
5.560918894e-06
4.713014822e-06
4.588036515e-06
4.827035814e-06
5.671258022e-06
7.706848749e-06
1.454005228e-05
4.912176345e-05
4.232237484e-05
1.041149854e-05
5.205725703e-06
1.550367118e-06
8.275087866e-07
1.043949659e-06
1.060452665e-06
1.288652594e-05
3.964749918e-06
9.911729555e-07
2.760091609e-07
5.957167224e-08
1.607839398e-05
4.556587701e-05
1.941596327e-05
5.030402028e-06
5.104056417e-06
3.257922202e-05
4.700269247e-05
6.788150537e-05
9.108345601e-05
0.0001115557913
0.0001033196879
0.0001023063023
0.0001470750998
6.282875221e-05
1.07857187e-05
1.64764521e-06
6.533437852e-07
1.675296014e-07
2.448824056e-06
2.272880493e-06
1.605798876e-05
3.105405165e-06
6.672720246e-07
1.425347441e-07
4.883489531e-08
4.464100195e-06
5.619267958e-06
6.487103213e-07
3.561471699e-07
6.093803437e-07
5.41691886e-05
6.539560282e-05
9.568560838e-05
0.0001073258919
0.0001097458741
0.0001076776074
0.0001893638576
0.0001951239326
5.331480783e-05
4.983050819e-06
7.439729256e-07
2.818209229e-07
1.223518475e-07
2.250823334e-06
4.475595845e-06
1.55883773e-05
1.72112366e-06
2.767825856e-07
7.213689132e-08
6.410392792e-08
4.369384009e-07
7.99132887e-07
6.54528298e-07
4.639120701e-07
2.276356379e-05
2.637932033e-05
3.492548714e-05
2.383724417e-05
1.277635692e-05
2.268265877e-05
0.0001391862879
2.39961009e-05
1.93036269e-06
3.217523382e-07
1.473334325e-07
3.269428293e-07
2.734754753e-06
8.951392083e-06
1.176046256e-05
5.224397561e-07
7.39036184e-08
2.755784383e-08
8.848737331e-08
5.443485948e-07
1.421454777e-07
1.754199166e-07
7.385950417e-05
1.941515886e-05
6.582233539e-06
1.772710486e-06
7.173051584e-07
8.34320241e-05
7.181035852e-06
8.345533875e-07
1.753063168e-07
2.144879256e-07
1.580751153e-06
3.983368448e-06
1.630802314e-05
7.553406351e-06
2.039935045e-07
4.456674223e-08
2.508879815e-08
8.299001227e-08
7.785578746e-07
2.015361085e-07
1.74702416e-06
2.894100554e-05
2.364920097e-05
1.528756074e-05
6.613293563e-06
6.935992774e-07
2.223860407e-07
4.624960208e-07
4.873624264e-06
6.149381845e-06
2.124046058e-05
5.328536093e-06
2.112494657e-07
4.69900506e-08
3.127273423e-08
8.93607738e-08
8.310276244e-07
6.495936118e-05
3.843388374e-05
7.763434174e-06
1.667508687e-05
5.948356253e-07
3.797190541e-07
7.514823247e-07
8.021355505e-06
1.020558662e-05
1.572055748e-05
5.869098493e-06
1.575288055e-07
5.34063785e-08
3.553225313e-08
9.010650421e-06
6.092292723e-07
5.76199149e-07
1.152478376e-06
8.602498043e-06
1.626987593e-05
9.626406394e-06
4.89128635e-06
1.992312395e-07
7.031083263e-06
6.339791239e-06
5.573001716e-06
4.823061925e-06
4.208142195e-06
4.590069833e-06
3.466115613e-06
3.18185719e-06
4.178213542e-06
3.038097363e-06
2.892035453e-06
3.865561924e-06
2.738799966e-06
3.08243694e-06
3.110874784e-06
5.088936735e-06
8.541289338e-06
7.604713532e-06
1.232383899e-05
1.429443076e-05
1.613855559e-05
1.735690954e-05
1.879974057e-05
0.0002618993462
0.0001795772743
0.000120545273
6.220420702e-05
3.027847539e-05
7.667275529e-06
5.865504232e-06
6.785003874e-06
1.596237476e-05
1.968511216e-05
2.108683151e-05
2.1007736e-05
1.714578519e-05
1.623551411e-05
1.090427945e-05
6.300418049e-06
0.0004874473959
0.0004059969932
0.0002699637725
0.0003421753395
3.172856876e-06
1.006853304e-06
1.39819458e-06
1.766928214e-06
0.0007126020541
0.000704352535
0.0006273467745
0.0006249189589
0.0005055407142
0.0005167564403
2.243602372e-06
2.59310923e-06
2.449126635e-06
3.569447969e-06
5.154396373e-06
0.0006490168761
0.000713029893
0.0007420856818
9.892025215e-06
1.05983021e-05
0.0005102071309
0.0005037330405
0.000543871633
6.48752563e-06
6.840279509e-06
0.0003027361529
0.0003148695781
0.0002683404308
0.0003641768902
3.605154871e-06
4.665999159e-06
5.558129836e-06
5.32617058e-06
0.0005559623659
0.000535228376
0.0003937687182
4.096552506e-06
4.796014523e-06
5.154599429e-06
0.0005610488457
0.0007211993272
3.350780672e-06
0.0001569546964
0.0001624669134
0.0002505764763
1.89373577e-06
1.713533693e-06
2.101899783e-06
0.0001622678592
0.0001535682628
0.0001537930763
0.0001512854215
6.32900193e-06
4.086677205e-06
1.691019254e-06
4.668463292e-06
0.0001687540326
0.0001602206608
3.473629092e-05
0.0001701761787
0.000171367793
0.0001793335654
3.012961563e-05
3.049600471e-05
0.0001162661803
0.0001211396005
0.0001459395939
1.61857807e-05
1.741628065e-05
2.298216334e-05
6.934599552e-05
7.380154826e-05
9.686070061e-05
3.136157474e-06
4.299593306e-06
1.212151506e-05
4.82541061e-05
4.113772645e-05
5.517103829e-05
5.883050764e-07
9.876692717e-07
1.728996668e-06
4.808860695e-05
3.255201039e-05
3.187710688e-05
1.79060868e-06
1.922799574e-06
5.108731039e-07
0.0001055260544
6.252577378e-05
2.942590282e-06
1.955659432e-06
0.0001808391461
0.0001691794842
2.104899166e-06
0.0001342949805
2.366095431e-05
1.101445073e-05
4.203070727e-05
1.61580907e-06
2.309165507e-06
1.869427336e-06
3.415051908e-06
2.892270766e-06
2.275952868e-06
1.069841658e-05
1.16377003e-05
4.419697259e-06
6.912262218e-06
5.379489884e-06
9.175876931e-06
1.331070773e-05
1.382580654e-05
6.531075665e-06
8.804681128e-07
1.144705527e-06
4.715908891e-06
2.883537825e-05
5.006205445e-05
5.690923686e-05
3.875311643e-05
4.034550078e-07
4.314253256e-07
4.949522563e-07
4.5505918e-05
5.742131257e-05
3.925226346e-07
4.582490085e-07
3.775448872e-06
9.471816268e-06
1.414368407e-07
2.001128364e-07
3.525602537e-07
3.68731198e-05
2.782496566e-07
2.871599045e-07
1.099069851e-05
9.182427425e-07
5.8706126e-07
4.410600517e-07
2.953668536e-07
1.449252082e-07
7.077388898e-07
5.763498737e-06
3.719787807e-05
2.270319675e-05
9.860838165e-08
2.635826383e-07
3.044493146e-07
6.108915162e-05
3.784250199e-05
2.035432504e-05
1.796236909e-05
9.777548144e-06
5.371964669e-06
3.62708426e-06
1.541164218e-07
6.750819141e-08
7.503395935e-08
5.159159738e-08
4.17502869e-08
4.077552225e-08
3.981706584e-08
6.233956893e-06
1.719118586e-06
5.361573774e-07
5.580776075e-07
5.563829869e-07
7.474074207e-07
7.038931739e-07
1.414728434e-06
3.622384385e-06
3.854282708e-06
7.887900935e-06
1.636996192e-05
1.607633648e-05
1.924232394e-05
1.278694258e-05
1.063944464e-05
9.647178186e-06
1.096878555e-05
5.175554437e-07
5.547649202e-06
4.853969889e-06
5.149591747e-06
3.902754976e-06
2.97997763e-06
3.289972628e-06
2.405032211e-06
2.115363839e-06
2.45959683e-06
1.99959447e-06
2.043980357e-06
2.262237923e-06
2.408475882e-06
3.51082502e-06
3.296089864e-06
5.383212385e-06
6.856572702e-06
7.994650072e-06
7.217079694e-06
9.13649387e-06
1.141728322e-05
1.098042921e-05
1.306410801e-05
1.551468187e-05
0.0001764594173
0.0001177398271
0.0002591548343
8.420420052e-06
5.004333998e-06
2.418372667e-05
4.815683198e-06
4.640894479e-06
5.220270258e-06
4.471606196e-06
4.223775406e-06
4.543546124e-06
3.78744493e-06
3.144232196e-06
2.973542406e-06
2.539640965e-06
2.26960854e-06
2.096414097e-06
2.187586221e-06
2.260317728e-06
2.113286483e-06
2.557718859e-06
3.062804697e-06
3.46371776e-06
3.256196631e-06
3.95509061e-06
5.424191311e-06
4.653816743e-06
6.005105238e-06
7.352235361e-06
7.307315847e-06
8.984196166e-06
1.08226845e-05
1.141671055e-05
1.48690633e-05
1.721767274e-05
1.899892877e-05
2.257150827e-05
2.152917879e-05
2.142950835e-05
1.122346402e-05
6.505514759e-06
0.0003445144519
0.0001647874389
0.0002419644579
1.016280618e-05
5.641347193e-06
8.390615184e-06
5.835551054e-06
5.096322445e-06
4.931856202e-06
4.649528852e-06
4.461117327e-06
4.255607451e-06
4.341638504e-06
4.157408333e-06
3.991223661e-06
3.874193849e-06
3.488086642e-06
3.33185136e-06
2.998041317e-06
2.743927786e-06
2.464043725e-06
3.537090595e-06
2.435818811e-06
2.298744973e-06
2.011009898e-06
1.812648908e-06
2.442701516e-06
1.292365215e-06
1.911207986e-06
2.728379493e-06
3.159554838e-06
4.235920423e-06
4.992167462e-06
5.192021767e-06
6.437164035e-06
7.546270904e-06
8.300145461e-06
1.101026704e-05
1.276502359e-05
1.459590085e-05
1.865500145e-05
2.107213201e-05
2.10465113e-05
1.73534685e-05
1.636821379e-05
8.88398438e-06
3.557524172e-06
2.507702571e-06
0.0008353539068
0.0008885431589
0.0008353154265
0.0006884904137
0.0005025930323
0.0004956320223
0.0002124947742
9.697500948e-06
2.053555049e-05
7.68278674e-06
9.110706252e-06
6.663558964e-06
1.143502809e-05
1.521832602e-05
6.570792939e-06
1.88947941e-05
1.937273548e-05
7.348182965e-06
1.662880054e-05
1.245597652e-05
5.978384358e-06
8.529901355e-06
6.163818821e-06
3.893148996e-06
1.005463261e-05
3.273824921e-05
7.312358941e-06
4.900934626e-05
2.627391363e-05
7.20946551e-06
1.144956666e-06
9.358339397e-07
1.30368104e-06
5.898377694e-07
1.604351201e-06
1.528292766e-06
2.774434787e-06
3.43449754e-06
3.702321377e-06
4.017727578e-06
4.919912135e-06
5.581689268e-06
6.329004142e-06
8.380167234e-06
9.569564544e-06
1.107675366e-05
1.413972757e-05
1.62863678e-05
1.612571253e-05
1.504580246e-05
1.671583781e-05
1.06279068e-05
6.41772105e-06
5.017318623e-06
4.874455993e-06
5.264171458e-06
3.814886796e-06
6.474600712e-06
8.112712386e-06
7.046349278e-06
0.0004935117222
0.0005503814214
0.0006514644874
0.0007254970106
0.0007688112286
0.0008520470438
0.0006294809383
0.0005681033201
0.0005346171482
2.028190248e-05
1.588568722e-05
9.563300643e-06
2.520446823e-05
4.588422395e-05
1.855062625e-05
6.788724866e-05
7.570435773e-05
4.190503283e-05
6.719968027e-05
5.163411296e-05
4.004045689e-05
3.698367546e-05
2.669788548e-05
2.215839677e-05
2.27612892e-05
3.174444878e-05
1.555055223e-05
6.10294997e-05
8.621774032e-05
6.992671489e-05
7.576718532e-05
4.077636881e-05
4.218748838e-05
4.785268315e-07
4.752139488e-07
6.726084483e-07
4.102137166e-07
3.88934338e-06
2.288684695e-06
6.421645505e-06
5.465490765e-06
3.70596051e-06
4.058849617e-06
4.10316873e-06
4.417725073e-06
5.056802516e-06
6.564201439e-06
7.391799152e-06
8.475016541e-06
1.050446824e-05
1.221805707e-05
1.11664515e-05
1.006277758e-05
1.272294006e-05
8.012344957e-06
6.18029147e-06
6.941232691e-06
5.140817359e-06
4.713013404e-06
5.499958207e-06
4.618597567e-06
4.726760393e-06
6.526908755e-06
5.006175703e-06
5.472062832e-06
8.715133101e-06
0.0002048746941
0.0003401474394
0.0003938071922
0.000605367716
0.0006256243063
0.0006848816047
0.000523049996
0.0004434806702
0.0005455209227
6.066810538e-05
6.116183443e-05
3.491016653e-05
8.669904867e-05
0.0001083375778
8.45665888e-05
0.0001040533635
7.819378566e-05
8.991107996e-05
5.101173072e-05
3.25477278e-05
4.620685278e-05
2.260936484e-05
1.96553037e-05
2.437251551e-05
2.515586198e-05
4.216267928e-05
4.160415026e-05
6.274864852e-05
6.573507752e-05
8.045232334e-05
4.743807799e-05
2.336775384e-05
3.193092468e-05
1.544893778e-07
1.986403595e-07
3.172339956e-07
3.131583051e-07
9.754342079e-06
6.655927862e-06
1.968354702e-05
2.059542152e-05
1.082318677e-05
1.169303103e-05
5.360366014e-06
4.185808486e-06
4.414839569e-06
5.270478226e-06
5.864168845e-06
6.557602637e-06
7.680582708e-06
8.993304525e-06
6.901213447e-06
5.240241525e-06
7.441431551e-06
4.060013756e-06
3.426916231e-06
4.744609948e-06
3.098169948e-06
2.921213073e-06
3.726579103e-06
2.83591911e-06
2.832167541e-06
3.527877882e-06
2.92645546e-06
3.158619423e-06
3.934093878e-06
0.0004952077465
0.0004130027889
0.0002954470649
0.0004060046504
0.0005247950172
0.0004152451515
0.0006521466327
0.0006551645648
0.0006131726435
0.0006614257122
9.003994563e-05
0.0002452563747
5.50290942e-05
6.863685891e-05
7.549351538e-05
8.32376454e-05
8.140570029e-05
0.0001040252059
5.982301716e-05
3.571172356e-05
5.527239835e-05
2.069223068e-05
1.377723731e-05
2.078346665e-05
1.158062546e-05
1.33909869e-05
1.581690925e-05
2.065455815e-05
3.335607465e-05
3.835736939e-05
4.263700114e-05
3.733910399e-05
5.04437804e-05
2.431819012e-05
1.279892281e-05
1.705441075e-05
5.900583943e-07
2.171998851e-07
1.417455739e-07
2.612582372e-07
1.117501989e-05
1.143918572e-05
2.536602212e-05
3.441635243e-05
3.011089683e-05
3.011695355e-05
1.512543927e-05
8.946766407e-06
5.956733129e-06
4.484495081e-06
4.790747453e-06
5.110694705e-06
5.591486397e-06
6.554487559e-06
3.95569864e-06
2.613780537e-06
3.644012566e-06
2.121155022e-06
2.005304412e-06
2.534718196e-06
2.03063364e-06
2.112417896e-06
2.396580038e-06
2.222487684e-06
2.358320257e-06
2.47508485e-06
2.529845004e-06
2.7549393e-06
2.812517362e-06
3.065796044e-06
3.505980839e-06
3.744273106e-06
0.0005980271722
0.0006328442215
0.0006599532327
0.0006439231173
0.0006337376042
0.0005280482307
0.000649135327
0.000714252819
0.0006046933009
0.0007269282203
0.0007975979246
0.0007210434431
0.0001286977962
2.45899255e-05
5.059658131e-05
2.369007666e-05
2.936866671e-05
4.899032412e-05
3.665601296e-05
3.843526611e-05
5.667628069e-05
2.973206758e-05
1.737971515e-05
2.364614267e-05
1.050876407e-05
8.160638613e-06
1.013050714e-05
8.111291895e-06
1.038541083e-05
1.17557335e-05
1.580089053e-05
2.329377141e-05
2.820302037e-05
2.561039102e-05
1.911813817e-05
2.694363121e-05
1.227558507e-05
8.382964968e-06
1.00792292e-05
5.526403041e-06
1.4874188e-06
5.807226271e-07
6.897674661e-07
8.083985676e-06
9.79994896e-06
1.849662169e-05
2.732682216e-05
3.284294047e-05
2.977179964e-05
2.235255913e-05
2.075768351e-05
1.040195388e-05
4.671008158e-06
4.444868918e-06
3.930145641e-06
4.008829295e-06
4.757004468e-06
2.509187948e-06
1.655372313e-06
2.006485377e-06
1.480648404e-06
1.554147399e-06
1.708905716e-06
1.740332402e-06
1.989836429e-06
1.992285798e-06
2.280049143e-06
2.601202646e-06
2.412636633e-06
2.940745337e-06
3.265454433e-06
2.911719569e-06
3.527526158e-06
3.669445395e-06
3.502009403e-06
3.604781212e-06
3.494559334e-06
4.350264606e-06
0.000178379227
0.0002013610398
0.0003619415599
0.0002459233193
0.0003228317965
0.0005267467277
0.0004418146812
0.0005063193512
0.0006976922677
0.0006264318635
9.980099838e-05
0.0008126143192
1.282757671e-05
7.733675668e-06
1.370472957e-05
6.690799607e-06
7.929214454e-06
1.576632765e-05
1.20418991e-05
1.885805682e-05
2.695903872e-05
2.297652523e-05
1.431317621e-05
1.469879074e-05
7.549710944e-06
6.156448462e-06
6.954560247e-06
6.332034404e-06
7.933706982e-06
9.102675978e-06
1.130285472e-05
1.515075934e-05
1.88922321e-05
1.430261186e-05
9.461385452e-06
1.346029093e-05
6.496362149e-06
6.257872933e-06
7.217954056e-06
1.113356373e-05
4.293013967e-06
3.050514671e-06
2.028361015e-06
4.855686446e-06
6.392600661e-06
9.5777237e-06
1.359184893e-05
2.031515621e-05
1.550345705e-05
1.422166595e-05
1.954148671e-05
9.444667714e-06
4.782193042e-06
4.918028777e-06
2.955440125e-06
2.676170061e-06
3.313634141e-06
1.759156352e-06
1.264672559e-06
1.428708084e-06
1.298258922e-06
1.570937238e-06
1.499002232e-06
1.968175008e-06
2.430347803e-06
2.106412291e-06
2.955734391e-06
3.583633048e-06
2.941021205e-06
4.337822453e-06
5.121191002e-06
3.892930621e-06
5.62733591e-06
5.272753289e-06
4.083987238e-06
3.293073391e-06
2.275774771e-06
2.764091019e-06
0.0001428327856
0.0001338197607
0.0001565012979
0.0001451698312
0.0001604652178
0.0002119738983
0.0002201125365
0.0002494192662
0.0003571679816
0.0003248070578
1.616023433e-05
3.292745131e-05
4.180231285e-06
2.481064237e-06
4.423402689e-06
1.98367165e-06
1.914467579e-06
3.806659016e-06
2.325960892e-06
4.580547662e-06
1.122630402e-05
1.502837815e-05
1.638177127e-05
1.53573678e-05
6.730102711e-06
5.421015892e-06
5.660642951e-06
5.377049222e-06
6.241434517e-06
6.959550907e-06
8.10422343e-06
9.732083686e-06
1.2091242e-05
7.605759176e-06
4.548958179e-06
6.623788685e-06
3.359717341e-06
4.333672812e-06
5.320157655e-06
9.680556743e-06
4.277601724e-06
4.597870276e-06
2.584118978e-06
2.382860085e-06
3.508536559e-06
3.340806145e-06
4.171726799e-06
8.102012854e-06
4.432068142e-06
4.285779443e-06
8.643490983e-06
3.677214101e-06
2.702706927e-06
4.003714632e-06
1.913696512e-06
1.633872735e-06
2.129274722e-06
1.531245163e-06
1.621846342e-06
1.244050183e-06
2.162504909e-06
3.044343534e-06
1.946817817e-06
4.067677147e-06
5.143373506e-06
3.26068367e-06
6.38930861e-06
8.019173002e-06
5.01925107e-06
1.019652522e-05
1.287236881e-05
7.836532939e-06
1.558711581e-05
1.729201594e-05
9.329056955e-06
1.577676691e-05
1.0499973e-05
3.147611863e-06
0.0001662006468
0.0001678915958
0.0001529441187
0.0001503305198
0.0001382284357
0.0001322961539
0.0001437675904
0.0001353936885
0.000138127763
0.0001379225245
0.0001353553818
0.0001805075742
0.0001577912458
3.177571744e-06
7.384618927e-06
9.922962823e-07
8.146802979e-07
1.399064531e-06
9.398852136e-07
1.119164944e-06
1.22207549e-06
1.051395137e-06
8.94320495e-07
1.475077663e-06
2.284298329e-06
9.484016272e-06
1.498455295e-05
5.623651471e-06
5.000745063e-06
5.312340054e-06
5.019344934e-06
5.428479637e-06
5.779053981e-06
7.046239417e-06
1.506191018e-05
8.879613546e-06
3.623511049e-06
1.779231307e-06
2.976387717e-06
1.356745295e-06
2.312248654e-06
3.307628613e-06
6.32479781e-06
3.079487478e-06
3.735554019e-06
1.656211349e-06
9.046833214e-07
1.513003375e-06
8.466701807e-07
7.925364931e-07
1.811289302e-06
7.079350092e-07
6.761221855e-07
1.673200378e-06
6.748789846e-07
6.489156759e-07
1.385079428e-06
6.083581807e-07
6.393228503e-07
1.10125806e-06
1.253557617e-06
2.006788383e-06
1.965890647e-06
2.799591971e-06
3.758076187e-06
4.085774102e-06
4.942197775e-06
6.330881436e-06
6.842553425e-06
7.896693572e-06
9.662041917e-06
1.068108077e-05
1.173918877e-05
1.434340854e-05
1.686008274e-05
1.772147284e-05
2.19705919e-05
2.468692731e-05
2.678664434e-05
3.142900067e-05
2.838743162e-05
3.492510011e-05
3.656191162e-05
2.285866456e-05
0.0001726097838
0.0001831570044
0.0001866371473
0.000163498914
0.0001426687552
0.0001462927772
0.0001496794928
0.0001264586699
0.0001347913929
0.0001139250207
7.706374303e-05
0.0001028788504
2.977011126e-05
1.908782939e-06
1.537330278e-06
1.436201718e-06
1.483020787e-06
6.609215184e-07
1.5845739e-06
1.749216424e-06
1.926291938e-06
1.965169836e-06
2.136204061e-06
1.589821886e-06
2.161938179e-06
2.379381746e-06
3.643129212e-06
2.553996814e-06
2.713466778e-06
4.090790483e-06
3.154236451e-06
7.041728482e-06
5.093403462e-06
3.715863896e-05
0.0001137167511
4.543346054e-05
3.62227575e-06
3.941093113e-07
9.232288978e-07
3.22315693e-07
7.707309276e-07
1.441057074e-06
3.208983865e-06
1.696152011e-06
2.214422093e-06
5.290919722e-07
3.293609021e-07
6.255977562e-07
3.428771495e-07
3.920660835e-07
5.393470437e-07
4.626096745e-07
5.372415575e-07
6.085176757e-07
6.175176184e-07
6.832191617e-07
6.066168237e-07
6.980500162e-07
4.911786611e-07
4.897134999e-07
4.838450302e-06
1.41389518e-05
5.912885829e-06
2.426589296e-05
2.913483745e-05
7.68150695e-06
2.623955592e-05
2.004917381e-05
8.604881005e-06
1.688647358e-05
1.793747629e-05
1.211459532e-05
2.1050861e-05
2.40342416e-05
1.494139991e-05
2.516299681e-05
2.35407653e-05
1.700651216e-05
2.033089975e-05
1.856450202e-05
2.392584682e-05
2.025692914e-05
2.505694675e-05
3.515392084e-05
0.0001316537739
0.0001405348257
0.000165180411
0.0001304841492
0.0001187284454
0.0001323734409
0.0001078812864
9.904688935e-05
0.0001121955949
5.917246141e-05
1.459001875e-06
1.324092298e-05
5.155464573e-07
4.313581782e-07
1.040161902e-06
5.323447425e-07
7.175745668e-07
1.046090898e-06
6.746150848e-07
6.568977498e-07
1.084022193e-06
6.53751491e-07
6.40545039e-07
1.13230534e-06
6.051093384e-07
5.675694565e-07
1.265179771e-06
5.732997441e-07
8.502978475e-07
1.525739743e-06
4.76143397e-06
3.060667348e-05
1.785332733e-05
0.0001003957245
0.0001560448203
0.0001852038736
1.167511098e-05
3.553955978e-08
1.327925936e-07
3.83466054e-08
1.083158175e-07
3.331880737e-07
6.913683108e-07
5.392813799e-07
1.109028648e-06
1.930300554e-07
1.260814849e-07
1.809356706e-07
1.351424877e-07
1.59470849e-07
2.494691496e-07
1.93743868e-07
2.396304551e-07
3.914492711e-07
3.14173353e-07
4.239879902e-07
6.036128995e-07
5.37275173e-07
8.932031439e-07
6.355655386e-07
5.495404857e-06
1.823621299e-05
1.890987406e-05
3.851016768e-05
6.072167837e-05
5.666206164e-05
7.739660837e-05
8.198623613e-05
5.931847638e-05
7.071606322e-05
4.758122608e-05
2.714568356e-05
2.788814608e-05
2.169577404e-05
2.684013304e-05
2.393737358e-05
2.818974925e-05
3.414414199e-05
3.042197288e-05
2.796699273e-05
2.545365061e-05
2.171891687e-05
1.682404415e-05
1.812093747e-05
7.911994729e-05
8.149825165e-05
0.0001129388241
7.753421322e-05
7.516007305e-05
0.0001002530646
6.109022078e-05
5.875348175e-05
8.028093676e-05
2.345924148e-06
9.052789041e-08
1.802968871e-07
8.082123012e-08
1.117877969e-07
1.46815873e-07
2.508740757e-07
6.532951039e-07
6.026389204e-07
7.946969358e-07
7.691910396e-07
4.933696931e-07
7.475850577e-07
6.988234489e-07
4.611931335e-07
5.932779403e-07
4.19611691e-07
3.097379729e-07
2.548543504e-07
1.871574406e-07
2.631758537e-07
1.812950931e-07
1.536258575e-07
5.605289395e-07
1.07321992e-07
5.93625444e-08
5.929810048e-06
7.405706325e-09
3.242343792e-09