/*--------------------------------*- C++ -*----------------------------------*\
| =========                 |                                                 |
| \\      /  F ield         | OpenFOAM: The Open Source CFD Toolbox           |
|  \\    /   O peration     | Version:  2.1.x                                 |
|   \\  /    A nd           | Web:      www.OpenFOAM.org                      |
|    \\/     M anipulation  |                                                 |
\*---------------------------------------------------------------------------*/
FoamFile
{
    version     2.0;
    format      ascii;
    class       surfaceScalarField;
    location    "1.8";
    object      phi;
}
// * * * * * * * * * * * * * * * * * * * * * * * * * * * * * * * * * * * * * //

dimensions      [1 1 -1 0 0 0 0];

internalField   nonuniform List<scalar> 
5536
(
7.903109217e-11
-1.646733502e-10
-6.035480331e-11
5.157273283e-11
-1.460376225e-10
-4.236210247e-11
3.225105385e-11
-1.327085582e-10
-2.515587172e-11
3.020282709e-11
-2.777427762e-10
-4.705917202e-11
-6.165469911e-11
-1.582740614e-09
-1.625035913e-09
2.881176065e-09
1.005952835e-10
-4.98595747e-10
-2.283268779e-10
3.424337064e-10
1.914340204e-10
-3.207062305e-10
-1.472369442e-10
1.944065274e-10
1.063093623e-10
-1.883031562e-10
-7.52019128e-11
1.333100497e-10
5.640695594e-11
-1.198122371e-10
-4.510610872e-11
1.141218286e-10
3.744234876e-11
-1.023892572e-10
-3.180039402e-11
1.207496344e-10
2.947166792e-11
-1.253299645e-10
-3.560849133e-11
3.187814504e-10
5.561673088e-11
-3.201307462e-10
-6.837876445e-11
9.364549784e-10
9.950831954e-12
-7.282735916e-10
7.229092102e-11
1.618811638e-09
-1.6887958e-10
-1.284219649e-09
2.733719323e-10
2.741456289e-09
-1.964064481e-09
3.956456242e-11
-3.613050021e-10
-5.019084743e-10
-2.440717015e-09
7.769747459e-10
-2.956896662e-08
1.126350661e-08
1.906847046e-08
-1.9705863e-08
-8.648101525e-09
7.196212644e-09
-3.689958112e-09
-1.380261788e-08
-1.343140854e-10
8.48797936e-09
3.641181593e-10
8.214838825e-11
-3.34575782e-10
-2.06033178e-10
3.001871156e-10
1.748599107e-10
-2.812875005e-10
-1.484879497e-10
1.926020315e-10
1.146173701e-10
-2.024208402e-10
-8.023034426e-11
1.211663726e-10
5.875278281e-11
-1.327158466e-10
-4.800063821e-11
1.073189437e-10
4.132147491e-11
-1.214863335e-10
-3.772019611e-11
1.365151649e-10
3.88785993e-11
-1.433526666e-10
-4.665773194e-11
2.773527068e-10
5.482533363e-11
-2.091132294e-10
-4.429973969e-11
5.755225844e-10
-1.328784041e-11
-4.653638307e-10
6.889303313e-11
1.009250554e-09
-1.230825633e-10
-8.023224948e-10
1.882327602e-10
1.620399383e-09
-2.717532075e-10
-1.322117511e-09
3.917701458e-10
2.422047085e-09
-5.613851432e-10
-2.221163647e-09
7.277264354e-10
1.58135247e-09
-7.974160645e-10
-2.098347024e-09
7.247450162e-10
-2.869469681e-10
2.137415614e-10
-4.110056627e-10
-8.700692189e-09
-3.917272536e-08
2.347344808e-08
2.704335518e-08
-1.193383914e-08
-2.896403386e-08
1.34035221e-08
3.660193766e-09
-1.059495626e-08
-7.200123394e-10
-1.095155107e-10
3.837827323e-10
2.785271783e-10
-4.258556121e-10
-2.108489485e-10
3.17361659e-10
1.808577021e-10
-3.321728787e-10
-1.653958014e-10
2.722629002e-10
1.54574467e-10
-3.014510488e-10
-1.431258892e-10
2.156306044e-10
1.270820594e-10
-2.401922269e-10
-1.050455697e-10
1.478395251e-10
8.188260542e-11
-1.625572277e-10
-6.918578309e-11
1.362909657e-10
6.21265538e-11
-2.375086113e-10
-5.431893269e-11
1.391434505e-10
4.822131566e-11
-1.242805249e-10
-4.227330308e-11
1.424997434e-10
3.131011285e-11
-9.408688531e-11
-1.659380057e-11
3.83350721e-10
-1.938049309e-11
-3.248700669e-10
5.513750564e-11
6.526971877e-10
-9.08691055e-11
-5.459693638e-10
1.334573886e-10
1.080859283e-09
-1.954283196e-10
-8.935488092e-10
2.920135332e-10
1.927558656e-09
-4.333037723e-10
-1.630308686e-09
6.103465292e-10
2.22527457e-09
-7.766998104e-10
-2.085677788e-09
7.723266712e-10
3.421962266e-10
-4.594618869e-10
-4.82456324e-10
1.586166024e-10
7.889947712e-11
-8.185609346e-11
3.776175202e-11
-5.506075908e-11
-5.286791068e-11
-1.200952694e-10
6.276953445e-08
-4.901790591e-08
-5.47771168e-08
2.188847547e-08
4.597516515e-08
-1.315948677e-08
-5.234883818e-08
1.43088114e-08
2.481939347e-08
-1.748700493e-08
-1.146386183e-08
-7.730795704e-11
6.373038639e-10
4.822776962e-10
-6.394280556e-10
-4.290343699e-10
4.823782086e-10
3.250857008e-10
-8.877513515e-10
-3.033089097e-10
5.312949388e-10
3.346169832e-10
-1.999515392e-09
-3.713468669e-10
5.420470812e-10
3.537227956e-10
-1.873062375e-09
-2.791066462e-10
3.260369815e-10
1.976909679e-10
-7.211073512e-10
-1.425932504e-10
2.068251432e-10
1.224768973e-10
-1.229482978e-09
-2.892645877e-10
3.421931698e-09
8.93423046e-10
-2.4926629e-08
-3.902094863e-10
1.033713307e-10
5.361093646e-11
-8.019471977e-11
-3.104344249e-11
6.532451545e-11
1.640194792e-11
-5.007141966e-11
-6.592598562e-12
2.932213364e-10
-1.929685202e-11
-3.045005958e-10
4.710558699e-11
4.702294965e-10
-7.289001681e-11
-4.184020849e-10
1.026420465e-10
7.502740282e-10
-1.470825309e-10
-6.406243716e-10
2.17985926e-10
1.369440627e-09
-3.251230895e-10
-1.147995744e-09
4.678901407e-10
1.838570529e-09
-6.205730118e-10
-1.553770365e-09
6.880149661e-10
6.031877212e-10
-5.478043834e-10
-6.575393182e-10
2.911995163e-10
1.304538093e-10
-1.3323434e-10
-2.020792426e-10
9.063099933e-11
1.904314662e-10
-1.117145415e-10
-2.838610163e-10
1.794244434e-10
-5.289487083e-10
-3.012137036e-10
4.611862828e-08
-4.73782216e-08
-2.419585364e-08
3.143883506e-08
5.268469988e-08
-2.361821327e-08
-4.666958058e-08
2.272595489e-08
6.077363777e-08
-2.345661244e-08
-6.046237335e-08
3.022030978e-08
5.850528975e-09
-2.565558453e-08
-2.698121345e-09
-3.979620324e-10
9.932195688e-10
9.47082514e-10
-2.836169645e-09
-1.357885208e-09
3.400970374e-09
2.919164466e-09
-1.150516829e-08
-5.432214617e-09
7.588038323e-09
7.095566712e-09
-1.552549445e-08
-6.851365803e-09
5.467026523e-09
5.31400657e-09
-8.827218165e-09
-3.495212239e-09
2.124811948e-09
2.079548162e-09
-4.98736444e-09
-1.613917164e-09
1.133699874e-08
3.438229655e-09
-3.533147679e-08
-8.120478197e-09
5.717600745e-08
9.280103714e-09
-7.132674401e-08
-4.728926184e-09
5.788723507e-11
5.270642092e-11
-3.844127805e-11
-2.253193552e-11
4.20039629e-11
1.262662834e-11
-3.655835383e-11
-7.763976858e-12
4.114955329e-10
-4.000652084e-11
-7.538323201e-10
6.968956408e-11
3.932665708e-10
-7.795877437e-11
-4.258110934e-10
8.983017834e-11
5.560954147e-10
-1.196937673e-10
-4.90581146e-10
1.71088448e-10
9.63063992e-10
-2.478189406e-10
-8.104344788e-10
3.497672361e-10
1.266787234e-09
-4.60668417e-10
-9.97801796e-10
5.105942521e-10
6.255119635e-10
-4.587556687e-10
-5.21797231e-10
3.458549121e-10
2.662852232e-10
-2.648190438e-10
-2.924177008e-10
2.579867139e-10
3.243718795e-10
-3.036982811e-10
-3.029512901e-10
3.746567186e-10
4.718925408e-10
-4.611946688e-10
-3.564419957e-10
5.650994754e-10
-4.715972125e-10
-7.327474022e-10
6.976574151e-10
9.810876442e-09
3.137598151e-08
-2.478291251e-08
1.00562187e-08
-3.385640634e-09
1.262246374e-08
3.921147398e-08
-6.983132655e-09
-3.583648137e-08
1.268713137e-08
5.126986756e-08
-2.618815559e-08
-4.214922666e-08
3.240582118e-08
6.767197838e-09
1.162941935e-09
-1.507459737e-08
-4.89028591e-09
8.710517451e-09
7.866490568e-09
-1.803893248e-08
-1.347488517e-08
2.219321683e-08
1.942634169e-08
-2.722433458e-08
-2.060270204e-08
1.880517113e-08
1.703267964e-08
-1.593242221e-08
-1.213022031e-08
9.00912044e-09
8.147077484e-09
-7.067598838e-09
-5.781027094e-09
8.314244685e-09
5.359619647e-09
-1.071290491e-08
-7.466982778e-09
5.215365228e-08
1.122188508e-08
-5.514578001e-08
-1.271849694e-08
6.619582002e-08
9.464775339e-09
-5.247461703e-08
-4.182417572e-09
2.310552482e-11
2.191836864e-11
-1.41747446e-11
-1.292926196e-11
2.942280102e-11
9.553380601e-12
-2.591059365e-11
6.599330914e-13
1.585626894e-09
-1.830861338e-10
-2.951794115e-09
3.749471332e-10
6.349094129e-10
-2.921634087e-10
-1.347481686e-09
1.52889854e-10
4.42021386e-10
-1.176012136e-10
-4.171733515e-10
1.430746629e-10
6.856114188e-10
-1.952768113e-10
-5.838537903e-10
2.627325404e-10
7.603405347e-10
-3.298164553e-10
-5.636000532e-10
3.394845574e-10
3.956316559e-10
-3.151146075e-10
-2.936807506e-10
3.011678477e-10
2.769655677e-10
-3.003451968e-10
-2.450548204e-10
3.022056101e-10
2.66262421e-10
-3.044068098e-10
-2.383077615e-10
3.0869167e-10
2.80590811e-10
-3.180316278e-10
-2.427098119e-10
3.362764937e-10
3.445896383e-10
-2.844584007e-10
4.24309352e-10
-3.688213274e-10
-6.617299782e-09
-5.912322007e-09
-3.731413969e-09
-5.776640704e-09
-1.121767669e-08
2.497116377e-08
7.702179835e-09
-2.065870188e-08
-2.134953698e-08
1.029053943e-08
3.456119743e-08
-8.453040053e-09
-2.894026323e-08
1.316260734e-08
4.132206508e-08
-3.064456339e-08
-4.035582521e-08
1.909515957e-08
2.095951473e-08
8.561903605e-09
-1.884580473e-08
-1.643462183e-08
2.442055608e-08
2.066327191e-08
-2.366199022e-08
-2.369301704e-08
2.442137674e-08
2.177913754e-08
-1.797783093e-08
-1.577478815e-08
1.080464699e-08
9.873325127e-09
-6.711734701e-09
-6.132641084e-09
5.052793527e-09
4.276589159e-09
-3.728748153e-09
-3.845926976e-09
1.163784432e-08
4.769799312e-09
-1.136384766e-08
-6.83803904e-09
4.965256906e-08
8.706610501e-09
-4.085518679e-08
-8.077446797e-09
3.806449559e-08
5.140993729e-09
-2.616314738e-08
-2.156486441e-09
1.842998565e-11
1.475997062e-11
-6.301821865e-11
-4.966948329e-12
2.325498768e-11
2.964296242e-12
-2.44335842e-11
5.866290976e-12
4.217032393e-09
-5.42300234e-10
-4.715925767e-09
1.336050944e-09
2.913105764e-09
-1.54596555e-09
-4.765825872e-09
8.605430948e-10
4.416212979e-10
-2.843974928e-10
-5.647977355e-10
1.496833948e-10
5.003093356e-10
-1.608763843e-10
-4.304153787e-10
2.025724136e-10
4.119885563e-10
-2.382099495e-10
-3.046130411e-10
2.275932296e-10
2.308508191e-10
-2.229512257e-10
-2.002946967e-10
2.323416202e-10
2.214328941e-10
-2.44547917e-10
-2.107051733e-10
2.546428401e-10
2.242276886e-10
-2.621930704e-10
-2.221023781e-10
2.680409733e-10
2.29007635e-10
-2.736291356e-10
-2.308115309e-10
2.810171299e-10
2.529153146e-10
-2.937450736e-10
-2.44147477e-10
3.17753065e-10
3.192614655e-10
-2.827744421e-10
4.559745658e-10
-3.607443085e-10
1.162297531e-09
-9.191685348e-08
2.382477512e-08
7.502878378e-08
7.391522218e-09
-7.126378355e-08
5.984896413e-09
6.429359207e-08
1.915237425e-08
-5.0018027e-08
-7.374156276e-09
3.839397464e-08
2.112911691e-08
-3.40591678e-08
-9.114536356e-09
3.089985469e-08
1.548421016e-08
-1.955239289e-08
-1.620674835e-08
-5.808374349e-09
1.465163454e-08
1.036334651e-08
-8.931180071e-09
-1.215176604e-08
1.791857845e-08
1.414808178e-08
-1.149925753e-08
-1.423206019e-08
1.216026919e-08
1.095208866e-08
-8.438652472e-09
-6.71620655e-09
4.267236486e-09
3.974972558e-09
-2.926992854e-09
-2.730813483e-09
2.943154872e-09
2.344765048e-09
-2.420846979e-09
-2.586176635e-09
1.030965586e-08
3.394196819e-09
-8.830293806e-09
-4.535634966e-09
3.158999072e-08
5.090728372e-09
-2.327185958e-08
-4.017150902e-09
1.743799977e-08
2.346602837e-09
-1.149332331e-08
-1.111872082e-09
2.418345593e-10
1.331571416e-10
-7.869789643e-10
-9.496240865e-12
3.748404245e-11
-5.768046169e-12
-7.9732709e-11
1.242281346e-11
4.402178315e-09
-5.662574755e-10
-3.59469943e-09
1.498097977e-09
5.712581073e-09
-2.197781635e-09
-5.376582695e-09
1.961062263e-09
8.182702444e-10
-9.396632827e-10
-1.119029784e-09
2.936817677e-10
3.705195358e-10
-1.547633942e-10
-3.185286711e-10
1.608331999e-10
2.353183661e-10
-1.824854955e-10
-1.937571124e-10
1.859376959e-10
1.884613794e-10
-1.975582634e-10
-1.826216862e-10
2.123222654e-10
2.079133491e-10
-2.280208441e-10
-2.080113051e-10
2.448226247e-10
2.274233679e-10
-2.620847415e-10
-2.366267371e-10
2.786356701e-10
2.422479919e-10
-2.934945525e-10
-2.593443687e-10
3.058655373e-10
2.481908658e-10
-3.153213578e-10
-2.592738748e-10
3.234991426e-10
2.543158487e-10
-3.334543322e-10
-2.238972065e-10
3.446300969e-10
-1.724516188e-10
-4.058580108e-10
-1.725453425e-09
4.634943845e-08
-4.302413382e-08
-4.237159915e-09
-3.933480729e-09
4.767111491e-08
-7.006466238e-09
-5.129639859e-08
-2.490001269e-09
5.444213266e-08
-4.058601177e-09
-5.606199819e-08
8.320937308e-09
5.583602878e-08
6.189426762e-09
-3.951024013e-08
-7.693350056e-09
2.501969749e-08
1.146161146e-08
3.7886293e-09
-4.701286327e-09
-3.822399073e-09
4.720724488e-09
3.259783466e-09
-2.32570724e-09
-3.513736488e-09
6.673619087e-09
4.521840003e-09
-3.537354417e-09
-5.565969068e-09
6.519986709e-09
5.295741266e-09
-5.624034874e-09
-3.385951549e-09
2.171246246e-09
2.072723634e-09
-1.716367397e-09
-1.644034247e-09
2.013193734e-09
1.606266225e-09
-1.673146027e-09
-1.841073465e-09
7.226630417e-09
2.267119964e-09
-5.726639673e-09
-2.717219788e-09
1.651350284e-08
2.634172936e-09
-1.140542295e-08
-1.792402499e-09
7.619939418e-09
1.054551777e-09
-5.139643416e-09
-6.724421661e-10
1.80901993e-09
4.114639745e-10
-2.683063478e-09
8.697788609e-11
1.659355936e-10
-8.807606833e-11
-2.759153075e-10
5.600988192e-11
2.630195068e-09
-3.817470097e-10
-1.736010966e-09
9.42127157e-10
4.166920092e-09
-1.440278815e-09
-2.713312221e-09
1.552087391e-09
1.257060031e-09
-1.104291257e-09
-1.102872866e-09
4.889678238e-10
2.737061572e-10
-1.944347314e-10
-2.352096512e-10
1.347369504e-10
1.682002319e-10
-1.465240161e-10
-1.486127404e-10
1.701737833e-10
1.751354689e-10
-1.856271711e-10
-1.64810698e-10
2.021221043e-10
2.092461009e-10
-2.253433658e-10
-2.122107766e-10
2.543915745e-10
2.480308854e-10
-2.85415544e-10
-2.610257029e-10
3.153992913e-10
2.800955831e-10
-3.42883336e-10
-3.05108589e-10
3.656289811e-10
2.763495677e-10
-3.776597265e-10
-3.070905921e-10
3.731694773e-10
1.91346594e-10
-3.514964964e-10
-1.625516629e-10
3.044148485e-10
9.380085259e-11
-1.084122853e-10
2.905267445e-10
-2.747528604e-10
2.351608486e-09
-1.196457606e-09
4.618984246e-09
-5.599875744e-09
2.394134119e-09
-1.24479096e-10
6.990954027e-09
1.799261958e-09
-8.507974549e-09
3.136577538e-10
9.765223071e-09
-7.178716824e-09
-1.174960617e-08
5.884296849e-09
1.097662223e-08
-3.29282985e-10
-7.869389783e-09
6.04229644e-09
-3.694670146e-09
2.454123138e-09
2.120820007e-09
-1.188588787e-09
-1.222088553e-09
1.166806226e-09
8.863717027e-10
-6.391949951e-10
-8.240273347e-10
1.634411787e-09
9.687486365e-10
-6.938576387e-10
-1.443307415e-09
4.845458569e-09
2.382150117e-09
-3.395424518e-09
-2.297170349e-09
1.426337576e-09
1.340844469e-09
-1.224884962e-09
-1.144581012e-09
1.394208196e-09
1.160257869e-09
-1.173494893e-09
-1.298184019e-09
4.457953406e-09
1.471553429e-09
-3.453592517e-09
-1.554723245e-09
7.730726111e-09
1.278583576e-09
-5.159851692e-09
-7.865074505e-10
3.52468427e-09
5.085079887e-10
-2.420999746e-09
-4.53240953e-10
2.938474222e-09
4.970621202e-10
-2.737081712e-09
6.550283522e-11
3.576192977e-10
-1.716448566e-10
-3.802382577e-10
1.214147882e-10
1.029296747e-09
-2.045419784e-10
-5.448802874e-10
3.849505673e-10
1.486493869e-09
-5.416215806e-10
-6.767647915e-10
5.984530672e-10
7.508900281e-10
-5.336083319e-10
-3.948995028e-10
3.738992367e-10
1.984586512e-10
-2.175443508e-10
-1.52836757e-10
1.330059635e-10
1.28971995e-10
-1.205610548e-10
-1.052408914e-10
1.350919941e-10
1.541703487e-10
-1.527370212e-10
-1.412782979e-10
1.801158217e-10
2.160260389e-10
-2.183817294e-10
-2.117993911e-10
2.625855839e-10
2.744087807e-10
-3.085378544e-10
-2.850419116e-10
3.584887076e-10
3.39505855e-10
-4.184770409e-10
-3.914824198e-10
4.886776874e-10
3.744824425e-10
-5.502912649e-10
-5.070457785e-10
5.698203236e-10
1.855420799e-10
-5.301159374e-10
-4.329791366e-10
5.095371955e-10
1.3513828e-10
-2.050270527e-10
4.843439117e-10
-5.350715268e-10
2.464143777e-10
5.590080751e-09
4.507310849e-10
-4.751073231e-09
-1.229937084e-09
2.65104269e-09
2.052386077e-09
-1.910682918e-10
-1.893675101e-09
-1.963495741e-09
3.145812351e-09
3.586144479e-09
-5.427612728e-09
-4.957573869e-09
5.362775051e-09
4.235293619e-09
-9.490861348e-09
-2.180586275e-09
1.044403653e-08
-8.080460656e-10
5.407793932e-10
5.527487357e-10
-2.38857771e-10
-4.253991367e-10
3.968835699e-10
3.865923883e-10
-2.75913527e-10
-3.476626519e-10
3.679327926e-10
2.823241296e-10
-2.850709567e-10
-2.407396731e-10
1.498634515e-09
3.286288248e-10
-5.023351577e-10
-8.227369884e-10
1.048476124e-09
8.9129184e-10
-8.335873443e-10
-8.24631538e-10
9.983686104e-10
8.327718694e-10
-8.401305076e-10
-8.920033034e-10
2.707737202e-09
9.534435841e-10
-2.433794106e-09
-1.045433246e-09
3.381805568e-09
6.098044568e-10
-2.181073495e-09
-3.409165825e-10
1.620795642e-09
2.476725494e-10
-1.020897119e-09
-2.95843976e-10
2.294281367e-09
4.089755219e-10
-1.784075551e-09
2.259272584e-11
3.415262345e-10
-1.397062885e-10
-2.551066472e-10
1.157953212e-10
2.656489798e-10
-9.495717553e-11
-1.425244445e-10
1.093630545e-10
2.560886739e-10
-1.255219118e-10
-1.046178988e-10
1.335497783e-10
1.611549934e-10
-1.430173926e-10
-6.95693317e-11
1.508418493e-10
9.495346203e-11
-1.407838882e-10
-5.011871626e-11
1.182596158e-10
7.345962283e-11
-1.043129899e-10
-6.74745462e-11
1.203851495e-10
1.159867405e-10
-1.694549163e-10
-1.081632199e-10
2.487992986e-10
1.85905746e-10
-3.514787477e-10
-1.603300535e-10
4.736301066e-10
2.77151424e-10
-6.191051375e-10
-2.394367674e-10
7.994382542e-10
4.249426303e-10
-1.031572383e-09
-3.502344329e-10
1.331854592e-09
6.484395524e-10
-1.70128478e-09
-5.317228503e-10
2.103469476e-09
8.164102548e-10
-2.452302698e-09
-8.12911363e-10
2.631148281e-09
5.596341667e-10
-2.609991121e-09
-1.011728204e-09
2.411950996e-09
4.016079228e-10
-6.676887836e-10
-1.98741239e-09
7.208947691e-09
-1.114218459e-09
1.893494631e-09
-6.097549066e-09
-2.967112481e-09
3.02699493e-09
3.999938592e-09
8.86714361e-11
-4.354241054e-09
-1.79658963e-09
5.425704277e-09
2.181425093e-09
-5.520193399e-09
-2.406148962e-09
5.978004936e-09
1.654236658e-09
-7.310561974e-09
-7.488824769e-10
3.270616673e-09
-4.384279135e-11
8.193654829e-11
4.743511395e-11
-4.726376828e-11
-5.590451939e-11
1.825389294e-10
9.775673078e-11
-5.894569111e-11
-1.926275638e-10
2.616978921e-10
2.681193775e-10
-9.686402609e-11
-2.701892399e-10
3.617720144e-10
2.910559925e-10
-2.174073797e-10
-3.639003295e-10
5.552471242e-10
4.339207281e-10
-3.375491586e-10
-4.653303484e-10
6.591381382e-10
4.992696403e-10
-4.704126431e-10
-5.931216838e-10
4.804541894e-09
1.706823241e-09
-2.099541117e-08
-8.99483786e-09
1.576683245e-09
4.817316187e-10
-2.173723953e-09
-1.185557329e-10
5.818247885e-10
9.674394134e-11
-2.891233265e-10
-1.591900277e-10
1.310926806e-09
2.766681733e-10
-9.011427079e-10
1.90796768e-11
1.592063974e-10
-1.133197787e-10
-8.519905292e-11
1.254570492e-10
9.644176276e-11
-1.322237547e-10
-6.161009692e-11
1.384285061e-10
8.29672008e-11
-1.460520301e-10
-6.31048832e-11
1.538361633e-10
6.982157676e-11
-1.60659701e-10
-6.895890253e-11
1.587214114e-10
4.619244278e-11
-1.422128738e-10
-5.38254308e-11
1.139832199e-10
1.778090094e-10
-1.002019088e-10
-4.708929521e-10
6.957416163e-10
3.567022044e-10
-1.450217459e-09
-2.12425516e-09
1.688558643e-09
2.694953896e-10
-1.47337638e-09
-1.539324141e-09
1.300576459e-09
3.233712115e-10
-1.382039572e-09
-6.527981984e-10
1.647339842e-09
4.231178893e-10
-1.95516444e-09
-7.762974994e-10
2.184823539e-09
4.554876784e-10
-2.281714811e-09
-8.573588052e-10
2.304782794e-09
5.448550859e-10
-2.410822258e-09
-5.683258799e-10
2.747822214e-09
8.372767886e-10
-3.340328096e-09
-4.967513481e-10
4.037003218e-09
6.808839767e-10
1.20246375e-10
-4.513772208e-09
4.297045767e-10
1.446051385e-09
-7.083686758e-09
6.384366626e-09
-2.634307734e-09
3.488322995e-09
-4.924724552e-09
-4.772985178e-09
2.62741554e-09
5.398444342e-09
4.207335983e-10
-5.82059526e-09
-1.97710716e-09
5.661179912e-09
1.125316655e-09
-5.972503042e-09
-1.87785036e-10
4.70786074e-09
-3.526700705e-10
4.084554774e-12
1.266795728e-10
-2.2605245e-11
-9.432875706e-11
3.087369656e-11
9.2140731e-11
-1.475872396e-11
-1.015706318e-10
3.847207897e-11
1.092986283e-10
-2.295870023e-11
-1.173433899e-10
4.916842153e-11
1.212804051e-10
-2.618292162e-11
-1.205004935e-10
9.586762479e-11
1.199900494e-10
-3.663512137e-11
-1.267105752e-10
1.760654676e-10
1.416761735e-10
-7.2318427e-11
-1.695287078e-10
4.588545401e-10
3.438793864e-10
-9.566631455e-10
-3.478290182e-09
6.25032786e-08
2.698979753e-08
-8.152226939e-08
-6.994753061e-08
5.284001489e-09
1.924831855e-09
-8.598428578e-09
-2.022712264e-11
1.219095847e-10
2.282051065e-11
-4.414066893e-11
-5.324032327e-11
5.371270122e-10
1.390265563e-10
-2.349148016e-10
1.544541156e-11
5.269703514e-11
-4.697424585e-11
-3.894159727e-11
7.247941424e-11
3.637989095e-11
-8.346678682e-11
-2.230890811e-11
9.671655526e-11
4.047127782e-11
-1.143345899e-10
-2.311471586e-11
1.363807348e-10
4.996517454e-11
-1.607868246e-10
-2.956818265e-11
1.847085021e-10
4.555865789e-11
-2.024512568e-10
-3.235889669e-11
2.06611803e-10
7.628458705e-10
-2.891244563e-10
-6.492435603e-10
3.919978298e-09
4.928616899e-09
-1.409733774e-08
-4.901887082e-09
2.910809466e-08
6.538005592e-09
-4.195539781e-08
-8.880112287e-09
4.429864153e-08
2.516007222e-09
-3.328035645e-08
-5.960274675e-09
1.74584503e-08
1.029292435e-09
-8.495806001e-09
-1.402085173e-09
6.48993238e-09
1.318311565e-09
-7.178967009e-09
-1.03294271e-09
8.169314813e-09
1.09659117e-09
-8.231854066e-09
-1.162618387e-09
6.813123902e-09
4.575012907e-10
-4.583173939e-09
-5.507048972e-10
3.028512899e-09
4.332941881e-10
-2.768202924e-10
2.924202702e-09
-2.642653524e-09
-2.05010887e-09
2.151342632e-09
-5.510338282e-09
5.082608231e-09
-4.151631725e-09
4.311274737e-09
-3.979967684e-09
-5.649779387e-09
2.595427054e-09
5.328574715e-09
-8.509231118e-10
-5.146431106e-09
1.294295056e-10
4.416095044e-09
-2.334880349e-10
-2.315666456e-09
3.406921439e-10
5.485577038e-10
-1.836425004e-11
9.010048897e-12
2.334298561e-11
5.229044898e-13
-3.040115927e-11
5.481969252e-12
3.97032908e-11
4.542111977e-12
-4.599067453e-11
1.307681609e-11
4.595460011e-11
-8.780724695e-12
-4.991892381e-11
1.477379686e-11
5.715443564e-11
-8.822495963e-12
-6.242018407e-11
1.582228734e-11
5.994887691e-11
-7.830838771e-12
-4.998370055e-11
2.326283219e-11
4.159134415e-11
-7.817043461e-12
-4.422421774e-11
7.566354687e-11
6.155059946e-11
-1.758677478e-11
-8.993148556e-11
7.723206562e-10
2.451540513e-10
-2.566328761e-11
-1.169590626e-09
2.582096382e-11
7.640230291e-12
-5.257906926e-12
-2.25414528e-12
1.66454801e-11
3.801635439e-12
-9.294183291e-12
-7.790102009e-12
6.040380436e-11
1.597096205e-11
-1.291179665e-11
2.856094912e-12
2.22195824e-11
-2.605298932e-11
-1.139707087e-11
3.453438806e-11
9.749937845e-12
-3.789398083e-11
1.211952623e-12
4.018845876e-11
8.375998296e-12
-4.447852763e-11
2.963896648e-12
4.646558022e-11
1.098080143e-11
-4.875690836e-11
-1.306375118e-13
5.70567254e-11
1.637437465e-11
-6.936810574e-11
-1.269545604e-11
9.410328829e-11
1.045893621e-10
-1.311347908e-10
8.143536232e-11
1.887032907e-09
5.250863598e-10
-4.085496318e-09
4.419083456e-11
3.941391774e-09
3.010192228e-10
-2.081151673e-09
-2.911075082e-12
9.996109031e-10
2.468551166e-10
-7.803442253e-10
-9.866376491e-13
9.151911447e-10
2.924049635e-10
-1.198571534e-09
-5.978184995e-13
1.585854526e-09
4.159388467e-10
-2.083195639e-09
-1.257827909e-12
2.678795341e-09
5.302223183e-10
-3.213821455e-09
-6.352101e-12
3.288795405e-09
2.705860912e-10
-2.599113931e-09
-1.935293213e-11
1.661579465e-09
1.440738185e-10
-3.865492073e-11
1.108746835e-09
-1.183398758e-09
-2.455484306e-09
2.65877414e-09
-5.160355788e-09
4.389715625e-09
-3.840513526e-09
3.045419111e-09
-3.558545763e-09
-4.394578809e-09
2.682058503e-09
3.180251946e-09
-1.873772165e-09
-3.758225435e-09
1.208298836e-09
2.842290549e-09
-8.975553841e-10
-1.37255825e-10
9.35886196e-11
6.051264149e-11
-4.239313792e-11
-9.7561027e-12
4.899807074e-11
2.169051655e-11
-5.903713997e-11
-6.557072283e-12
7.442691305e-11
2.603980026e-12
-6.631076121e-11
4.076375014e-12
6.483258494e-11
2.565735743e-12
-6.488025925e-11
2.906493053e-12
5.503299442e-11
-1.38789174e-13
-3.472280144e-11
9.527060612e-13
1.529892407e-11
-1.331937959e-13
-6.169539266e-12
8.198580459e-13
7.150151995e-12
-1.04694274e-12
-1.257628216e-11
4.129158372e-12
1.537606402e-11
-4.08302809e-12
-1.15816346e-11
1.327059388e-12
5.335888113e-12
2.905817785e-12
-2.978820472e-12
1.049130876e-12
5.872398796e-13
4.100334307e-13
-3.152114167e-13
6.003799385e-12
8.630090591e-13
-3.420244505e-12
-3.017602162e-12
1.069489545e-11
4.905828126e-13
-1.188654987e-11
2.480807353e-12
6.361967319e-12
-1.900180487e-12
1.405121798e-11
-2.686985365e-12
-1.40999637e-11
-7.991952558e-13
1.675434661e-11
4.17033219e-12
-9.930047544e-12
2.969106528e-12
1.43892081e-11
-3.254677184e-12
-1.167164916e-12
1.609833294e-13
6.19070309e-13
5.042238521e-13
-3.172222226e-12
-2.923515257e-12
6.356690271e-12
1.559145951e-11
7.805377183e-12
-2.734967603e-11
-4.062631881e-12
2.419836028e-11
2.940279201e-12
-1.336531215e-11
-2.655211973e-12
9.478243148e-12
2.048680754e-12
-5.983425053e-12
-9.464608675e-13
3.826169682e-12
5.41492913e-13
-2.609244041e-12
-2.162015722e-13
1.935866204e-12
2.713442685e-13
-1.515967236e-12
-1.067512265e-13
1.293377196e-12
2.633937809e-13
-1.254092092e-12
-9.428089584e-14
1.488690075e-12
8.784020548e-13
-2.455909864e-12
-2.836170655e-13
5.556670587e-12
4.60255046e-12
-1.372976957e-11
-1.720513544e-12
3.116229791e-11
1.554739535e-11
-6.920887246e-12
1.072864471e-10
-6.167502897e-11
-2.607177619e-09
2.459470249e-09
-4.517109968e-09
3.07600973e-09
-2.215541804e-09
1.53998785e-09
-2.231811381e-09
-2.000116864e-09
1.697385083e-09
1.085376895e-09
-1.295488889e-09
-1.670218245e-09
9.124629997e-10
7.281520246e-10
-5.454545392e-10
-4.058058438e-11
5.094142433e-11
3.101635219e-11
-4.0117044e-11
-2.058120218e-11
3.71265849e-11
1.972240725e-11
-3.317888091e-11
-1.468408698e-12
2.691389827e-11
3.061904976e-12
-2.343655208e-11
-3.196525402e-12
1.504519748e-11
4.260768229e-12
-7.715009783e-12
-9.709382011e-13
2.980783316e-12
7.318703159e-13
-1.130383564e-12
-9.468234874e-14
1.095196354e-12
3.137240834e-13
-2.039362725e-12
-5.909645199e-14
3.613275248e-12
9.921888402e-13
-5.783497585e-12
-2.623723559e-14
8.680560951e-12
3.586272095e-12
-1.289209525e-11
-1.129013404e-11
1.921190537e-11
2.405849787e-11
-2.088742864e-11
-5.283126004e-12
1.646225393e-11
2.424242105e-11
-1.738659967e-11
-2.449867364e-12
3.012045465e-11
3.767062275e-11
-5.037774491e-11
-7.153324182e-12
7.750901052e-11
6.428914073e-11
-7.29321755e-11
-3.496666192e-11
4.148347484e-11
8.197352717e-11
-7.815044636e-12
-2.009249139e-11
-1.014641833e-12
2.451845538e-11
3.539146465e-12
-1.652634131e-11
3.260487616e-13
1.877753259e-11
-1.206730136e-12
-3.151793108e-13
2.636701837e-14
1.662481409e-13
1.091082389e-13
-5.999926419e-12
-4.219333482e-12
1.663729824e-12
1.31160323e-11
2.389648252e-12
-1.109168513e-11
-8.68362294e-13
6.494689982e-12
9.961612879e-13
-3.317801483e-12
-3.413675897e-13
1.911050417e-12
2.497338561e-13
-1.247737364e-12
-6.859881852e-14
7.723444042e-13
5.360085968e-14
-5.689779145e-13
2.431375009e-14
4.326472948e-13
2.735325049e-14
-3.500591553e-13
8.679675859e-15
3.027295303e-13
2.545934702e-14
-2.887463445e-13
5.394599384e-15
3.245029913e-13
7.721546897e-14
-4.896846785e-13
7.553838409e-15
1.072144433e-12
5.286215995e-13
-2.88397691e-12
-2.270180254e-13
7.829378075e-12
2.204793198e-12
1.751919146e-13
3.676397859e-11
-1.816080374e-11
-3.046733598e-09
-9.22595515e-09
3.996179376e-09
-1.268278368e-09
1.85805529e-09
-1.928681179e-09
-5.770325492e-10
1.032515074e-09
4.257612089e-10
-6.424585209e-10
-2.721791813e-10
4.118453148e-10
1.390454407e-10
-2.466261608e-10
-2.758792234e-11
1.419082197e-10
3.696564413e-11
-1.049457574e-10
-1.655639161e-11
8.418429358e-11
1.800306932e-11
-6.730647991e-11
-6.451568985e-12
4.961075459e-11
9.015062834e-12
-3.734185439e-11
-4.490126811e-12
2.373297475e-11
3.892165926e-12
-1.450015337e-11
-8.113891368e-13
9.464710512e-12
1.723022315e-12
-7.009702415e-12
-5.321539504e-13
5.748461572e-12
1.290151274e-12
-4.431057904e-12
-1.168172777e-12
3.784615835e-12
2.311952072e-12
-4.594538953e-12
-5.591754721e-12
7.054083244e-12
8.293342414e-12
-1.345506753e-11
-3.32956118e-11
2.572347006e-11
3.962298623e-11
-4.151587067e-11
-5.779426343e-11
6.035590262e-11
9.318840069e-11
-9.023096017e-11
-1.029194034e-10
1.35542403e-10
1.559119211e-10
-1.780173997e-10
-1.3368687e-10
2.047678846e-10
1.798481235e-10
-2.120690994e-10
-1.620234668e-10
1.521700558e-10
2.296197243e-10
-3.360775765e-11
-3.09338713e-11
-5.510038194e-12
4.041046875e-11
4.6773987e-12
-3.446455354e-11
-1.161585955e-11
6.607198362e-11
-3.104275408e-13
-1.005069276e-13
6.272026908e-15
7.684199474e-14
3.892423018e-14
-1.418773277e-12
-1.576737636e-12
1.251036181e-12
1.91815609e-12
1.921889027e-13
-1.288542816e-12
1.17772326e-13
8.220639279e-13
1.226694658e-13
-5.224039546e-13
-3.565999749e-14
3.327082005e-13
4.882023073e-14
-2.103218197e-13
-2.636207802e-14
1.42248348e-13
-3.279220527e-14
-1.53183121e-13
4.046208073e-15
2.507315513e-13
-3.058732696e-14
-7.867267242e-13
1.606141243e-13
3.851372183e-12
-1.051160268e-13
-1.458765449e-11
4.343322614e-12
3.855271151e-11
-1.215282011e-12
-7.731600932e-11
2.130889571e-11
1.283684642e-10
-7.155167905e-12
-1.870836446e-10
4.842057365e-11
2.432868753e-10
-2.002418324e-11
1.122756891e-12
3.08011622e-10
-2.64108322e-10
1.904623192e-08
-3.016333819e-09
4.840647924e-09
-1.643874722e-08
-4.384991035e-10
1.21686266e-08
9.899912703e-11
-7.501008511e-09
1.889855784e-10
4.239615274e-09
-1.126570837e-10
-2.434376456e-09
1.804083319e-10
1.462459588e-09
-6.869028902e-11
-9.2694243e-10
1.272358224e-10
6.320437572e-10
-6.258580534e-11
-4.735604688e-10
1.12560511e-10
3.909445497e-10
-7.333694915e-11
-3.467674445e-10
1.184422336e-10
3.18261979e-10
-8.786443877e-11
-2.924978088e-10
1.17078095e-10
2.621420394e-10
-9.942611208e-11
-2.219614561e-10
6.690854387e-11
1.679238788e-10
-7.984731771e-11
-1.004042231e-10
-9.502235481e-12
2.946445458e-11
2.727950966e-11
-2.569179264e-11
-1.730704987e-11
2.577092134e-11
3.979201135e-11
-3.233319121e-11
-5.21132838e-11
4.664948403e-11
7.690468001e-11
-6.864994729e-11
-1.268789439e-10
9.642664342e-11
1.602349691e-10
-1.262854444e-10
-1.915511904e-10
1.503841697e-10
2.08651557e-10
-1.607501466e-10
-1.863286038e-10
1.584061234e-10
1.677577917e-10
-1.523631396e-10
-2.300371524e-10
1.299882256e-10
1.966772236e-10
-6.222722122e-11
-4.804035792e-11