/*--------------------------------*- C++ -*----------------------------------*\
| =========                 |                                                 |
| \\      /  F ield         | OpenFOAM: The Open Source CFD Toolbox           |
|  \\    /   O peration     | Version:  2.1.x                                 |
|   \\  /    A nd           | Web:      www.OpenFOAM.org                      |
|    \\/     M anipulation  |                                                 |
\*---------------------------------------------------------------------------*/
FoamFile
{
    version     2.0;
    format      ascii;
    class       volVectorField;
    location    "1.8";
    object      Uf;
}
// * * * * * * * * * * * * * * * * * * * * * * * * * * * * * * * * * * * * * //

dimensions      [0 1 -1 0 0 0 0];

internalField   nonuniform List<vector> 
2828
(
(-0.2287928825 0 -0.08270205658)
(-0.2276647283 0 -0.06255855619)
(-0.2320615043 0 -0.04620357226)
(-0.2595218508 0 -0.03848663869)
(-0.4769850119 0 0.00916704576)
(-0.06798948597 0 0.3097679353)
(-0.3054490406 0 -0.21245713)
(-0.268235038 0 -0.144573157)
(-0.2325085785 0 -0.1131530078)
(-0.2384416999 0 -0.09652214939)
(-0.2406402341 0 -0.07357225112)
(-0.2455015153 0 -0.05612385142)
(-0.2777111014 0 -0.05073687201)
(-0.4809336186 0 0.0268441843)
(-0.5714562468 0 0.08251590039)
(-0.5900471769 0 0.1156765902)
(-0.553792205 0 0.150704125)
(-0.2755536154 0 0.1240763434)
(-0.2759115519 0 0.09020023923)
(0.1813193133 0 0.3451560346)
(-0.3302247708 0 -0.2048400675)
(-0.2937845684 0 -0.1619930557)
(-0.2490053197 0 -0.1350428315)
(-0.2500702526 0 -0.1165833866)
(-0.2607531356 0 -0.09377768243)
(-0.2623892169 0 -0.06974481585)
(-0.2986348827 0 -0.05753222251)
(-0.4784088699 0 0.0474021962)
(-0.5346839722 0 0.09107536382)
(-0.5654444105 0 0.1308736873)
(-0.5644467217 0 0.1623719024)
(-0.4715079749 0 0.1803189467)
(-0.638370478 0 0.4312949217)
(-0.3195176088 0 0.05946282525)
(-0.3796125781 0 0.1172152558)
(-0.2455774507 0 0.1822212695)
(-0.3624008989 0 -0.2157672785)
(-0.3396239628 0 -0.1891721339)
(-0.3244125168 0 -0.1758059726)
(-0.287023115 0 -0.1572404311)
(-0.2572994355 0 -0.1380418763)
(-0.28354589 0 -0.1225322147)
(-0.2868868851 0 -0.0904857374)
(-0.3333571271 0 -0.06670275173)
(-0.4860746065 0 0.06106089822)
(-0.507450152 0 0.09622218151)
(-0.5256662096 0 0.134763375)
(-0.5447840929 0 0.1706833484)
(-0.4752638771 0 0.1755502418)
(-0.2485110936 0 0.1172458775)
(-0.1682551549 0 0.104543701)
(-0.154369877 0 0.1106146379)
(-0.3159933911 0 0.1902293808)
(-0.3411840775 0 0.04379510974)
(-0.2648247563 0 0.1906483746)
(-0.3994426633 0 -0.385632368)
(-0.3381999957 0 -0.2216485495)
(-0.3813675734 0 -0.2362505168)
(-0.403603881 0 -0.2377378788)
(-0.3397442067 0 -0.1832144145)
(-0.2934766037 0 -0.1622308839)
(-1.691508862 0 -0.3206204412)
(-0.3234896861 0 -0.1259524698)
(-0.3921294754 0 -0.08684817435)
(-0.5166064345 0 0.07630151138)
(-0.4989869436 0 0.1015677215)
(-0.4919068381 0 0.135745758)
(-0.5074004486 0 0.1713474502)
(-0.4692576048 0 0.183803317)
(-0.2918891284 0 0.1448635387)
(-0.1911594226 0 0.1270986009)
(-0.184380893 0 0.149631544)
(-0.2375828291 0 0.2313254101)
(-0.3085631803 0 0.2748826914)
(-0.3220955017 0 0.1155429453)
(-0.4747330284 0 0.09827316613)
(-0.5071637799 0 0.09756834683)
(-0.4500922645 0 -0.3224272627)
(-0.6669399696 0 -0.541533912)
(-0.9730201552 0 -0.8013611078)
(-1.014531157 0 -0.8049119172)
(-0.8196535529 0 -0.5567201475)
(-2.258247138 0 -0.5159819733)
(-4.169726298 0 -0.5986239123)
(-0.3710670534 0 -0.1759007707)
(-0.4325871695 0 -0.1110795385)
(-0.5498011374 0 0.08942690337)
(-0.501815601 0 0.1071320435)
(-0.469216756 0 0.137943566)
(-0.4678174719 0 0.167654282)
(-0.4387266166 0 0.1826334544)
(-0.3093512923 0 0.1683066744)
(-0.2465295593 0 0.1962679977)
(-0.2917513996 0 0.2873420064)
(-0.3291360794 0 0.355575574)
(-0.3552636634 0 0.4065791925)
(0.08532677713 0 0.3988588522)
(-0.1202927646 0 0.2872551292)
(-0.2921842405 0 0.07116155319)
(-0.4008802102 0 0.242698303)
(-1.046632828 0 -0.6477345119)
(-0.8827440334 0 -0.6858360079)
(-1.174364986 0 -1.024995729)
(-1.434020323 0 -1.251655755)
(-1.449336089 0 -1.198280676)
(-1.807850919 0 -0.9176028395)
(-3.999368015 0 -0.7678133789)
(-5.229742635 0 -0.6946440869)
(-0.4245280885 0 -0.2187673566)
(-0.3970840979 0 -0.09356777828)
(-0.6607363383 0 0.1519846613)
(-0.5157918041 0 0.1182848474)
(-0.4553539188 0 0.1418205021)
(-0.4339676909 0 0.164310911)
(-0.4003106499 0 0.1773796467)
(-0.3315231368 0 0.2178080112)
(-0.3509339088 0 0.3323469908)
(-0.3804359138 0 0.4064647109)
(-0.3836950743 0 0.4382850689)
(-0.3737041477 0 0.4506069649)
(-0.1432989577 0 -0.06760033615)
(-0.1292704214 0 0.231669963)
(-0.2544101501 0 0.3133525024)
(-0.2416146237 0 0.1192106109)
(-0.3049306002 0 0.4170000573)
(-1.563392213 0 -1.076660833)
(-1.294546064 0 -1.030022257)
(-1.425471189 0 -1.308248138)
(-1.58519997 0 -1.446599341)
(-1.560065457 0 -1.248884413)
(-2.56987326 0 -0.9048476779)
(-4.590218852 0 -0.7778327478)
(-5.273135731 0 -0.6809510865)
(-0.488407243 0 -0.2240608549)
(-0.4248344111 0 0.007236243584)
(-0.8640529123 0 0.2545281398)
(-0.7109641985 0 0.226321587)
(-0.4491356339 0 0.1470501466)
(-0.4085775188 0 0.1638292526)
(-0.3719066149 0 0.1766342047)
(-0.4151175287 0 0.3461107635)
(-0.4677808272 0 0.4886539713)
(-0.4651350784 0 0.5309813362)
(-0.4337311794 0 0.526704718)
(-0.3854680685 0 0.4918819638)
(-0.340958994 0 0.4544322586)
(0.157114124 0 0.5203204993)
(-0.02408301822 0 0.5284276749)
(-0.1079772597 0 0.4168729815)
(-0.1086737624 0 0.2530528397)
(0.09302465236 0 0.1110665589)
(-1.806781071 0 -1.227126894)
(-1.502265806 0 -1.164142934)
(-1.405718562 0 -1.334906878)
(-1.398173067 0 -1.334326444)
(-1.463737398 0 -1.132872116)
(-2.71174247 0 -0.8077593377)
(-4.458499683 0 -0.7257140564)
(-4.675882801 0 -0.6043090877)
(-0.5974692555 0 -0.1711255223)
(-0.5253370899 0 0.08063782762)
(-0.9356932255 0 0.3037172758)
(-0.8567442095 0 0.314009882)
(-0.4941032354 0 0.1772256332)
(-0.3912444184 0 0.1683942169)
(-0.3669858508 0 0.1929114279)
(-0.5649345299 0 0.5569585297)
(-0.566190852 0 0.6471559618)
(-0.5019679982 0 0.6211800099)
(-0.4344799906 0 0.5687557493)
(-0.3670154218 0 0.5016160786)
(-0.3106323986 0 0.442640378)
(-0.268130142 0 0.4084030637)
(-0.2386188683 0 0.867203757)
(-0.1081021253 0 0.8016764973)
(-0.02077156339 0 0.6371107516)
(0.05714450164 0 0.4788551219)
(-0.06667000068 0 0.1233972476)
(-1.871858458 0 -1.328379857)
(-1.719447727 0 -1.116470993)
(-1.441447892 0 -0.9777619166)
(-1.20828465 0 -1.048736629)
(-1.144925971 0 -1.147452421)
(-1.311795574 0 -1.043004345)
(-2.5106687 0 -0.7218565481)
(-3.967659675 0 -0.6547855326)
(-3.926686909 0 -0.5173485235)
(-1.05564521 0 -0.03982435955)
(-0.631681802 0 0.1491798619)
(-0.8915526797 0 0.3112493257)
(-0.8585075045 0 0.3390825207)
(-0.560918485 0 0.2352571104)
(-0.3817257737 0 0.1870813731)
(-0.3909330938 0 0.2329100509)
(-0.6287802874 0 0.7048774971)
(-0.5546339468 0 0.7078332621)
(-0.4594115404 0 0.6279463233)
(-0.3713654904 0 0.534419747)
(-0.2952926137 0 0.4423710515)
(-0.2583300068 0 0.4114347172)
(-0.2535513223 0 0.5027650305)
(-0.0283439281 0 0.1263379093)
(-0.03355163246 0 0.1902665345)
(-0.0194210419 0 0.2835614047)
(0.08191727402 0 0.275156096)
(0.04182021861 0 0.1623191608)
(-1.428168318 0 -1.382514179)
(-1.552984612 0 -1.136986564)
(-1.366407306 0 -0.6869184816)
(-1.094458073 0 -0.5522038593)
(-0.9209348837 0 -0.9560515778)
(-1.107290357 0 -0.9554499065)
(-2.14444892 0 -0.6495568139)
(-3.373451084 0 -0.5832038004)
(-3.474373876 0 -0.4746539701)
(-1.339314819 0 -0.09762066061)
(-0.6969196279 0 0.2021949543)
(-0.7953258743 0 0.2957990395)
(-0.7578644193 0 0.3225998522)
(-0.5308190673 0 0.279517173)
(-0.3811737415 0 0.2580084554)
(-0.3895192436 0 0.289665876)
(-0.4282955739 0 0.6198442422)
(-0.3248247965 0 0.5081851145)
(-0.2646988732 0 0.4386310659)
(-0.212630054 0 0.3864572704)
(-0.1637871083 0 0.316983451)
(-0.126914549 0 0.2646730534)
(-0.2543900895 0 0.9575205046)
(0.004720351044 0 -0.1708474174)
(0.0564641138 0 -0.05518534849)
(0.08731947823 0 0.1017070773)
(0.1365871933 0 0.1996067581)
(0.1860355532 0 0.08149493938)
(-1.212302426 0 -1.420071337)
(-1.484103956 0 -1.445645495)
(-1.508681908 0 -1.022161867)
(-1.052778562 0 0.07544124688)
(-0.7378756131 0 -0.7259779848)
(-0.8496438347 0 -0.7677682354)
(-1.724310712 0 -0.5783880376)
(-2.931691805 0 -0.5426679778)
(-3.496173525 0 -0.5042212422)
(-1.359538113 0 -0.1347047133)
(-0.7201486529 0 0.1964673296)
(-0.7727766711 0 0.3115650354)
(-0.6880556097 0 0.3413494381)
(-0.4799666028 0 0.4337508482)
(-0.3878893655 0 0.4920899881)
(-0.2532817055 0 0.4382452103)
(-0.1836833051 0 0.4083513511)
(-0.1566953435 0 0.4156730221)
(-0.1480226242 0 0.440687476)
(-0.1483356827 0 0.4704002747)
(-0.1507539926 0 0.4864796334)
(-0.1493946544 0 0.4699206455)
(-0.1337147536 0 0.4295055793)
(-0.07299076375 0 0.4101391278)
(0.03454964089 0 -0.1853979774)
(0.1045729042 0 -0.0489175738)
(0.1601922171 0 0.06466369634)
(0.2112164966 0 0.1005449605)
(0.2227371904 0 0.0454678303)
(-0.1609632171 0 -0.4050987376)
(-0.1810396636 0 -0.4024280805)
(-0.2460633668 0 -0.8112133702)
(-0.5280220866 0 -0.4556914484)
(-0.6440421191 0 -0.5347847104)
(-0.7181781604 0 -0.5597446262)
(-2.057333446 0 -0.7378362817)
(-2.819654221 0 -0.5707309001)
(-4.048622992 0 -0.6317781849)
(-1.328867461 0 -0.1387147302)
(-0.7514540155 0 0.3120719975)
(-0.8531973477 0 1.148296717)
(-0.6697697028 0 1.311500366)
(-0.5624278833 0 1.248772098)
(-0.4027865372 0 1.061612562)
(-0.306841509 0 1.037265953)
(-0.2695584874 0 1.159390207)
(-0.1798664626 0 0.8390974286)
(-0.1606329431 0 0.7677378465)
(-0.1572073557 0 0.7713262263)
(-0.140588799 0 0.7152253068)
(-0.1261727792 0 0.6740601607)
(-0.1285981657 0 0.6691088617)
(-0.122691612 0 0.5984711381)
(0.04485398283 0 -0.2429656425)
(0.09121476351 0 -0.1685274442)
(0.1547634797 0 -0.05324493817)
(0.1960688779 0 0.06216016462)
(0.257946172 0 -0.001637522543)
(-0.159090018 0 -0.4249807834)
(-0.1450930463 0 -0.4488886265)
(-0.1740399242 0 -0.5108098427)
(-0.1986932673 0 -0.5211428767)
(-0.3418596987 0 -0.4740371281)
(-0.6274572147 0 -0.5197322093)
(-0.7836949933 0 -0.5747932256)
(-3.96702761 0 -1.870475616)
(-3.329766386 0 -0.5499656078)
(-5.147284487 0 -0.9085485158)
(-1.475038382 0 -0.1142042295)
(-0.8999657802 0 0.2094321409)
(-0.8428048674 0 2.299778894)
(-0.6006469164 0 2.141247648)
(-0.4666349041 0 1.905856087)
(-0.2917992504 0 1.519321526)
(-0.6414190254 0 3.030620974)
(-0.6697163095 0 3.661928772)
(-0.5717112208 0 3.442558704)
(-0.3709996368 0 2.357765881)
(-0.2224268548 0 1.338335075)
(-0.2159532593 0 1.270410254)
(-0.1877206363 0 1.099399514)
(-0.1190834698 0 0.7848478853)
(-0.08847999488 0 0.6856526658)
(0.1105717788 0 -0.2941042858)
(0.1790461149 0 -0.1986183851)
(0.2300729977 0 -0.0943273967)
(0.2426497921 0 -0.03091946824)
(0.139724004 0 -0.1906966463)
(-0.4069084289 0 -0.9426726534)
(-0.07138693992 0 -0.3495582625)
(-0.08315136602 0 -0.4448435747)
(-0.1079535331 0 -0.6084298735)
(-0.1418218264 0 -0.7507294774)
(-0.3172152393 0 -0.8100299489)
(-0.7830347459 0 -0.7652410463)
(-1.063592405 0 -0.7726752745)
(-3.484979926 0 -1.014942296)
(-6.637283208 0 -1.461959665)
(-2.368521164 0 -0.03941537988)
(-1.068214124 0 0.8249485156)
(-0.4665570023 0 2.403177293)
(-0.4686099083 0 2.772303615)
(-0.4308034846 0 2.465648734)
(-0.2666620501 0 1.69568681)
(0.271010339 0 1.99545995)
(0.1453101071 0 1.703802127)
(-0.1285703878 0 1.099477027)
(-0.1545067369 0 1.080200396)
(-0.1604315436 0 1.124497193)
(-0.1569987533 0 1.156758747)
(-0.1306281098 0 1.03916453)
(-0.07373633674 0 0.6801286949)
(-0.04620962737 0 0.4794607649)
(0.2195439079 0 -0.4760293566)
(0.2560834063 0 -0.3488056499)
(0.2910156564 0 -0.2142559632)
(0.3179285722 0 -0.1332795628)
(0.4088528598 0 -1.362975308)
(0.716110058 0 -1.721783554)
(0.0202282702 0 -0.3339665988)
(-0.01753274232 0 -0.3289402135)
(-0.03437617871 0 -0.3922341569)
(-0.07644220071 0 -0.5298351226)
(-0.1871563849 0 -0.7839005686)
(-0.447568909 0 -1.232167318)
(0.5855335628 0 -0.9651381789)
(0.09243153423 0 -0.8514894905)
(-4.056333582 0 -0.8230675785)
(-0.8686638244 0 0.6177301902)
(0.3143070219 0 -0.1054377607)
(2.049376663 0 0.5858738597)
(1.175902361 0 -1.021699711)
(0.7190727908 0 0.5871299955)
(0.2147058033 0 0.5518275687)
(-0.08001042214 0 0.3124406124)
(-0.2567137482 0 0.2540001594)
(-0.5212737616 0 0.9920875802)
(-0.3417747257 0 1.227513997)
(-0.2004981385 0 0.9689132065)
(-0.1386198215 0 0.7890301682)
(-0.1047794709 0 0.6680311116)
(-0.08134446799 0 0.5652947736)
(-0.06396977638 0 0.4820160059)
(0.3083093264 0 -0.6997666261)
(0.3077355174 0 -0.5704981586)
(0.3021093257 0 -0.4282256952)
(0.3188668257 0 -0.394399983)
(0.5385818008 0 -1.112013545)
(0.7579264311 0 -1.236921015)
(0.06121104918 0 -0.3554661731)
(0.08827493976 0 -0.5165470787)
(0.1545352859 0 -0.8487841582)
(0.2513767245 0 -1.361682728)
(0.3939915754 0 -1.8846349)
(0.6570354955 0 -1.424875818)
(0.9502994674 0 -0.6764494699)
(1.105769876 0 -0.7048062906)
(0.9274092439 0 -0.5309004075)
(0.1906565584 0 -0.2207375904)
(0.4070705793 0 -0.1900987471)
(2.57241655 0 0.357435395)
(1.03798059 0 -0.413048357)
(0.745754214 0 0.5202628296)
(0.04116528133 0 0.4007713342)
(-0.1998211435 0 0.3379195879)
(-0.2203606315 0 0.3428600306)
(0.002833908079 0 0.6932353861)
(-0.06084937628 0 1.210567855)
(-0.0526601699 0 1.164731472)
(-0.04580180153 0 0.9884897099)
(-0.04137325326 0 0.8554481402)
(-0.03864655049 0 0.7370823268)
(-0.02978886498 0 0.6278353445)
(0.3138860171 0 -0.6636621054)
(0.3321416006 0 -0.7042257228)
(0.3034085378 0 -0.6182279875)
(0.2849760343 0 -0.5879279579)
(0.3005397068 0 -0.6213168986)
(0.3501320592 0 -0.7445630545)
(0.4752760462 0 -1.120493234)
(0.5615637516 0 -1.285242234)
(0.7035229245 0 -1.520527389)
(0.6276732694 0 -0.7895168772)
(0.5287003029 0 -0.7506565753)
(0.6633437784 0 -0.4969426518)
(0.8023056944 0 -0.496054333)
(0.8020660703 0 -0.4596694744)
(0.4067212294 0 -0.2756741527)
(0.1818979447 0 -0.2016277216)
(0.2986745341 0 -0.1798080114)
(2.381384061 0 0.2580257484)
(1.088193192 0 0.1260971989)
(0.8015420447 0 0.365352437)
(0.3321488735 0 0.497930386)
(-0.007532619845 0 0.6006193811)
(-0.1537795617 0 0.5499690753)
(-0.1325168073 0 0.4546049267)
(0.08183757092 0 0.711379513)
(0.04367205053 0 0.4847498284)
(0.04176891829 0 0.3779647432)
(0.04631414217 0 0.3181697422)
(0.05150799128 0 0.2853611708)
(0.0845124075 0 0.5477278638)
(0.1397725434 0 -0.6757637169)
(-0.05276168869 0 -0.8971499628)
(-0.1887635596 0 -0.8678927415)
(-0.2067692854 0 -0.7372577892)
(-0.223652163 0 -0.6638860053)
(-0.2689600837 0 -0.6569410966)
(-0.3402750453 0 -0.6658423279)
(-0.4139643025 0 -0.6515658971)
(-0.3972725198 0 -0.6137475135)
(0.4413934549 0 -0.3642304959)
(0.5572247224 0 -0.3499531586)
(0.6339883399 0 -0.3665491008)
(0.5874104622 0 -0.3216317809)
(0.3462473009 0 -0.2402574337)
(0.2003876044 0 -0.2131990696)
(0.2593455993 0 -0.2075069394)
(2.132864225 0 0.2034659643)
(0.8228902689 0 0.1148221799)
(0.7021715898 0 0.2432869329)
(0.3449971822 0 0.3295591759)
(0.1946851435 0 0.388982616)
(0.04560523444 0 0.4391108992)
(-0.04784416148 0 0.4777267844)
(-0.02851250128 0 0.4778434346)
(0.03983605478 0 0.4093242319)
(0.06091334196 0 0.3016479291)
(0.06199787471 0 0.2244776511)
(0.0620506924 0 0.1896967542)
(0.06178500851 0 0.1798491969)
(0.1854228207 0 -0.803679159)
(-0.02464491957 0 -0.8649009803)
(-0.09733455385 0 -0.7793249391)
(-0.1413127506 0 -0.8615574158)
(-0.2177577714 0 -0.9963282735)
(-0.3198635958 0 -1.100249094)
(-0.4339233562 0 -1.127663285)
(-0.5596809503 0 -1.090165259)
(-0.4979515623 0 -0.8446540212)
(0.412648602 0 -0.2760402167)
(0.4716742391 0 -0.2771782512)
(0.5197472429 0 -0.2886668092)
(0.4974242724 0 -0.2659586208)
(0.4006438785 0 -0.2454171771)
(0.3388022879 0 -0.2580884109)
(0.5542979531 0 -0.3011305997)
(1.812095789 0 0.158398957)
(0.7528491801 0 0.1064198434)
(0.6048525734 0 0.156884956)
(0.3283333255 0 0.2506595624)
(0.2489137162 0 0.2782500106)
(0.1790769419 0 0.4066579853)
(0.1519984273 0 0.5959775725)
(0.111729652 0 0.5464549159)
(0.09136888636 0 0.4091336489)
(0.07928168913 0 0.3028742443)
(0.06801557374 0 0.2329637839)
(0.06049336 0 0.1898353019)
(0.0566114425 0 0.1695636736)
(-0.0233340955 0 -0.7982823664)
(-0.04213075547 0 -0.8802870732)
(-0.07002369834 0 -1.078709649)
(-0.1191777776 0 -1.297137444)
(-0.1745714695 0 -1.461178793)
(-0.2202979769 0 -1.587417688)
(-0.2655485716 0 -1.75683995)
(-0.3147529524 0 -1.805194543)
(-0.08814210701 0 -0.9006314601)
(0.3949965322 0 -0.2473781391)
(0.437045397 0 -0.2494726779)
(0.4554325523 0 -0.2490821846)
(0.4376258081 0 -0.2369105179)
(0.3773151722 0 -0.2398975136)
(0.4297361822 0 -0.2822282298)
(0.6255747263 0 -0.3249430832)
(1.526486316 0 0.1228202085)
(0.776711437 0 0.106286051)
(0.7540306185 0 0.2034770055)
(0.6363868442 0 0.6605603453)
(0.4823770539 0 0.591950448)
(0.3134773857 0 0.3992101025)
(-0.201607343 0 0.3593975036)
(0.05988151109 0 0.309169433)
(0.08469373092 0 0.304467738)
(0.07230106601 0 0.2455067179)
(0.05507249743 0 0.1917298755)
(0.03281651904 0 0.1602584445)
(0.09401564622 0 -0.5334651355)
(0.1058791914 0 -0.5811810953)
(0.1212610035 0 -0.6389514081)
(0.1403878885 0 -0.6771499218)
(0.1691601534 0 -0.6836765631)
(0.2242781965 0 -0.6612086321)
(0.2894254009 0 -0.6255700084)
(0.3152100686 0 -0.3873330845)
(0.4021372185 0 -0.2163163537)
(0.4022616571 0 -0.1854879888)
(0.4272667434 0 -0.242606279)
(0.38015577 0 -0.2181200215)
(0.3191961664 0 -0.2248409685)
(0.3969007684 0 -0.2439399589)
(0.4564888249 0 -0.2321976921)
(1.279811024 0 0.09143913925)
(0.8254208202 0 0.1039752709)
(0.588214056 0 0.1686902286)
(0.6002778967 0 0.4930572989)
(0.4901431013 0 0.498661775)
(0.3329968337 0 0.3668681734)
(0.3908784593 0 0.4616674312)
(0.3950463724 0 0.5895753124)
(0.3491713558 0 0.579189856)
(0.07940006305 0 0.2161622795)
(-0.0139543414 0 0.1328680358)
(-0.001425929233 0 0.1460996959)
(0.1639999934 0 -0.5148052259)
(0.1717040681 0 -0.5042520358)
(0.1915801898 0 -0.489862412)
(0.2137849774 0 -0.4702129769)
(0.2341773144 0 -0.4499123506)
(0.2498691735 0 -0.4297969622)
(0.239219965 0 -0.3895165205)
(0.2403403775 0 -0.260514224)
(0.2419325803 0 -0.2074065781)
(0.4263529202 0 -0.1355729635)
(0.4115178262 0 -0.2544074745)
(0.2905284763 0 -0.2582984078)
(0.282136732 0 -0.2657163862)
(0.2634687487 0 -0.4267646)
(0.4080929391 0 -0.1977726303)
(1.088616955 0 0.06477781866)
(0.8808320873 0 0.09465765897)
(0.5599810034 0 0.1926089738)
(0.5722568747 0 0.387783774)
(0.4615425576 0 0.394750799)
(0.3257492982 0 0.3152469831)
(0.4477983679 0 0.4425741704)
(0.4295223017 0 0.5140193628)
(0.234582819 0 0.3525371347)
(-0.01130031719 0 0.1606019725)
(-0.0237629161 0 0.1563784842)
(0.208178271 0 -0.5454580853)
(0.1478304434 0 -0.5287881218)
(0.05751055241 0 -0.4815583407)
(-0.05172649413 0 -0.4071258523)
(-0.1351107948 0 -0.2275578906)
(-0.1749543049 0 -0.03843044041)
(-0.1303262086 0 0.07686422919)
(-0.04187665426 0 0.0879825988)
(0.4881014289 0 -0.1728868624)
(0.4011974375 0 -0.3042828469)
(0.5343584271 0 -0.5766234259)
(0.7035023201 0 -0.3257934393)
(1.666714511 0 -0.6442093415)
(0.4455292198 0 0.08721023038)
(0.9875644747 0 0.04359491939)
(0.9188470369 0 0.07567585031)
(0.6148253879 0 0.2199998747)
(0.5492794834 0 0.3160670191)
(0.4238531785 0 0.3135924689)
(0.3089328359 0 0.266754172)
(0.2449697806 0 0.23518324)
(0.189592726 0 0.2126333389)
(0.1631755682 0 0.3369422175)
(0.1731897875 0 0.4966104109)
(0.1196790043 0 0.3115595852)
(0.2300541768 0 -0.4786424859)
(0.1981207094 0 -0.4050421503)
(0.1281131682 0 -0.187803966)
(-0.2529101176 0 0.3494489405)
(-0.3191793855 0 0.4828671237)
(-0.2602533323 0 0.5163088842)
(-0.0658127924 0 0.3446424375)
(0.1729576717 0 0.1653391603)
(0.5025838085 0 -0.2210609878)
(0.43649906 0 -0.4377621253)
(0.7891521857 0 -0.7310041596)
(1.07000014 0 -0.7314819823)
(1.82438062 0 -0.4788444452)
(0.3604755235 0 0.05843876236)
(0.9847665453 0 0.02476900055)
(0.9136223638 0 0.04321532799)
(0.6383795259 0 0.2098755643)
(0.509110427 0 0.2544479495)
(0.3861970849 0 0.2521019345)
(0.2879183414 0 0.2241889622)
(0.2097907294 0 0.1816888811)
(0.1711331307 0 0.162584011)
(0.2059294562 0 0.2259895455)
(0.2692064767 0 0.3822460827)
(0.2620825431 0 -0.3479984535)
(-0.7642371551 0 0.671774282)
(-0.7470745181 0 0.6981043308)
(-0.638339182 0 0.6103276995)
(-0.4852863836 0 0.4657451803)
(-0.143329273 0 0.01232578883)
(0.3795976117 0 -0.01574928058)
(0.4869484864 0 -0.3515333417)
(0.545351345 0 -0.5589154129)
(0.8965170149 0 -0.9566398071)
(1.312067315 0 -0.6910197292)
(1.068435656 0 -0.2912652146)
(0.6534516467 0 -0.1699754936)
(1.063426301 0 0.008228582607)
(0.8644918612 0 0.03327821174)
(0.5629736514 0 0.1790881553)
(0.5339463543 0 0.2748882515)
(0.4133803302 0 0.2411395424)
(0.2860330988 0 0.2026586405)
(0.204135407 0 0.1627712297)
(0.9679119398 0 0.773454264)
(0.8933250117 0 1.11979141)
(-0.873119452 0 0.8296498624)
(-0.7688585393 0 0.7717059377)
(-0.534437439 0 0.5670166653)
(-0.2930796013 0 0.3408965424)
(-0.2854809334 0 0.3577202919)
(0.463985737 0 -0.221799438)
(0.4746260676 0 -0.4551174815)
(0.8132569676 0 -0.8569017524)
(2.111505799 0 -2.082337212)
(1.391761875 0 -0.7326264583)
(0.5845125638 0 -0.164053977)
(0.6340500612 0 -0.1401522735)
(1.140236667 0 0.00134451719)
(0.7067285361 0 0.008115687881)
(0.9421854717 0 0.009819989646)
(1.684097171 0 0.7534579111)
(1.167833562 0 0.6700191303)
(0.4510666881 0 0.2811510297)
(0.2118201768 0 0.155677557)
(1.0578254 0 0.5435940445)
(0.0375370352 0 0.3881878768)
(0.889234595 0 -0.7314063195)
(0.9662254859 0 -0.7378959427)
(0.7819382013 0 -0.493337828)
(1.113939656 0 0.3486426141)
(1.18000654 0 -1.182393349)
(2.247464141 0 -1.977368179)
(0.8248126277 0 -0.3245447982)
(0.4808452902 0 -0.1329726773)
(0.6422076881 0 -0.1241459842)
(1.102199681 0 -0.00266708387)
(0.5764295492 0 -0.01089181137)
(0.4672657577 0 0.07456414712)
(1.408437169 0 0.5444200452)
(1.079223181 0 0.5302036674)
(0.5257933887 0 0.290691756)
(0.2372650287 0 0.1545038441)
(0.9995642536 0 -0.7366141562)
(1.47700554 0 -0.9334557434)
(1.551087421 0 -0.6942142886)
(1.212101987 0 0.328747964)
(1.302019275 0 -1.197184848)
(1.888631887 0 -1.532280627)
(0.6421388756 0 -0.2370509465)
(0.4577408624 0 -0.1235589157)
(0.6941963907 0 -0.1222329803)
(0.9219471058 0 -0.02609358953)
(0.4744828958 0 -0.01440315285)
(0.3503592285 0 0.09546832106)
(1.146999425 0 0.4101004136)
(0.9190047003 0 0.4092201599)
(0.9481364427 0 -0.2111508719)
(1.01554664 0 -0.8508161032)
(1.08012997 0 -0.8008349258)
(0.4841332653 0 -0.1746993283)
(0.4112624739 0 -0.1106674362)
(0.7529806692 0 -0.1239750543)
(0.7780331659 0 -0.03628609237)
(0.3506345281 0 -0.02711908348)
(0.3042920174 0 0.07131294068)
(-0.2827103414 0 -0.1558606131)
(-0.2600707038 0 -0.134584427)
(-0.2405156335 0 -0.1159478011)
(-0.233900645 0 -0.1029354907)
(-0.2304888845 0 -0.09504744978)
(-0.2298408981 0 -0.09131500849)
(-0.2315506306 0 -0.08811194609)
(-0.2317712171 0 -0.07785574147)
(-0.2282481939 0 -0.07289942925)
(-0.2314043611 0 -0.06678069547)
(-0.2319290042 0 -0.05762428692)
(-0.228079637 0 -0.05367154574)
(-0.2365825449 0 -0.05067313361)
(-0.2471722853 0 -0.04612611403)
(-0.2421966047 0 -0.04060838756)
(-0.2675601836 0 -0.04582781349)
(-0.3314895368 0 -0.04308438704)
(-0.3073084792 0 -0.04696153319)
(-0.4867242719 0 0.0171619783)
(-0.553448988 0 0.05012879459)
(-0.5856130176 0 0.07802501457)
(-0.5970072193 0 0.09754702556)
(-0.5925305105 0 0.1116720995)
(-0.2579130343 0 0.1079256134)
(-0.1523851696 0 0.06931211088)
(0.1103404216 0 0.1935493586)
(0.06301229823 0 0.177996306)
(-0.178400594 0 0.05608977771)
(-0.3181669053 0 -0.1915761937)
(-0.3008426625 0 -0.1732890444)
(-0.2908530476 0 -0.166091628)
(-0.5825846926 0 0.1249962031)
(-0.5806205496 0 0.1433037312)
(-0.5725191793 0 0.1381958706)
(-0.5651964857 0 0.1572063372)
(-0.5317690313 0 0.1806397365)
(-0.5308932886 0 0.174812211)
(-0.4900923607 0 0.2129450943)
(-0.5367569621 0 0.301096248)
(-0.3722888516 0 0.08897911339)
(-0.307292096 0 0.1430117913)
(-0.3129932688 0 0.203588537)
(-0.2350143648 0 0.2411257019)
(-0.2354228583 0 0.1095088414)
(-0.2036757478 0 0.1055307836)
(-0.5479366153 0 0.3759981824)
(-0.1692617203 0 0.1005706618)
(-0.2877110487 0 0.1780609214)
(-0.3469461446 0 0.08512445453)
(-0.3090159349 0 0.09415517036)
(-0.3415538775 0 0.05220007301)
(-0.4220806581 0 0.1252891786)
(-0.3717463513 0 0.09912496461)
(-0.1824591635 0 0.1168427348)
(-0.1679321873 0 0.1167392706)
(-0.1606295408 0 0.1066832421)
(-0.1579429108 0 0.1177232298)
(-0.1616882895 0 0.1312724233)
(-0.2907078463 0 0.2647373174)
(-0.2748388995 0 0.2748193539)
(-0.2811521193 0 0.2793542563)
(-0.286288738 0 0.2954120018)
(-0.3131062094 0 0.3378216034)
(-0.1080160594 0 0.4323430823)
(-0.2072476566 0 0.45581421)
(-0.3475670871 0 0.334359331)
(-0.3659815674 0 0.4312285244)
(-0.3682328748 0 0.4427954618)
(-0.09933294621 0 -0.1869086858)
(0.2829161988 0 0.2966194366)
(0.1591958838 0 0.3345928391)
(-0.04610289422 0 0.4025393014)
(-0.3813909593 0 0.4721861575)
(-0.3646112839 0 0.4619075396)
(-0.3675913112 0 0.4554936083)
(-0.3539716377 0 0.4572992923)
(0.008626073728 0 0.3176539138)
(-0.0376779596 0 0.3179095098)
(-0.1454864338 0 -0.1021712635)
(-0.3283006132 0 0.4509493099)
(-0.3065023897 0 0.4313627205)
(-0.3265064996 0 0.4434678443)
(0.1620978623 0 0.6981066462)
(0.237731154 0 0.5379690562)
(-0.2469500082 0 0.4132160468)
(-0.08305281913 0 0.4769106736)
(-0.09782485408 0 0.5079618588)
(-0.1509379422 0 0.8614382983)
(-0.2935360858 0 0.7445422488)
(-0.2869068232 0 0.7917301742)
(-0.2563046665 0 0.5548743801)
(-0.03550942766 0 -0.1157021379)
(-0.01941880674 0 -0.09069856405)
(0.01192213311 0 -0.06419313568)
(-0.02515082578 0 0.1706367535)
(-0.06385021123 0 0.5236099306)
(-0.02188893123 0 0.8075531207)
(-0.2848730844 0 1.054400693)
(-0.01183499609 0 0.7855909575)
(0.007004416198 0 -0.1623646394)
(-0.004390767422 0 -0.1783857222)
(-0.1204348828 0 0.4744746504)
(0.008475979933 0 -0.2479926105)
(0.03057215198 0 -0.2289283236)
(0.01566082704 0 -0.2055533651)
(-0.1118408162 0 0.684550928)
(-0.1101263662 0 0.6769661552)
(0.08353094509 0 -0.2715600498)
(0.1051058674 0 -0.2357372915)
(0.05845596258 0 -0.2102164608)
(-0.07254819607 0 0.6243948861)
(-0.0641133086 0 0.5945783902)
(-0.0859153776 0 0.6738351094)
(0.1546313798 0 -0.3673964499)
(0.1913591947 0 -0.3195699051)
(0.147856784 0 -0.2609884989)
(-0.07232975231 0 0.3842495467)
(-0.0712151214 0 0.380325932)
(-0.04709004961 0 0.451858509)
(0.2741649429 0 -0.5915768777)
(0.283554786 0 -0.5274113879)
(0.2399275087 0 -0.4161911072)
(-0.0540781252 0 0.5568190005)
(-0.05013277092 0 0.5203231798)
(-0.05758695488 0 0.4551686311)
(0.3158275189 0 -0.7514200458)
(0.3273504691 0 -0.7322815775)
(0.3153372957 0 -0.6431578634)
(0.02277917407 0 0.4047736205)
(0.01945206876 0 0.4457154235)
(-0.02599126012 0 0.5876263139)
(0.2901638321 0 -0.5409955966)
(0.3078296169 0 -0.6448310724)
(0.07093518855 0 0.2146831793)
(0.07891835988 0 0.6068248123)
(0.1964958548 0 -0.5929548944)
(0.215888553 0 -0.5644619312)
(0.05831500292 0 0.1722485922)
(0.1969870827 0 -0.7538114079)
(0.1014601206 0 -0.9766045643)
(0.02097830739 0 -0.8761220854)
(0.09138991185 0 -0.836451864)
(0.05979991088 0 0.1824340023)
(0.05756041491 0 0.1669317641)
(0.05741987336 0 0.1734055219)
(0.02054157847 0 -0.6241294898)
(0.0395574077 0 -0.5889065699)
(-0.02433172924 0 -0.8179288171)
(-0.01414579283 0 0.1180030728)
(-0.02079612831 0 0.1170561035)
(0.01643200833 0 0.1524614408)
(0.1262389046 0 -0.5121323384)
(0.09406072141 0 -0.5155722893)
(0.0106446351 0 0.1588012351)
(0.1997425413 0 -0.5252974252)
(0.2027249392 0 -0.5261204695)
(0.1658053009 0 -0.5094321902)
(0.0512642221 0 0.1903832972)
(0.04052982585 0 0.1847431634)
(-0.0144849401 0 0.150722247)
(0.2175851074 0 -0.5440018463)
(0.2000894787 0 -0.5246325878)
(0.172083478 0 -0.5097788393)
(0.1809216141 0 -0.5438230779)
(0.2458153292 0 0.4750196367)
(0.2295211475 0 0.4764720646)
(0.1450313458 0 0.3950270374)
(0.2523702208 0 -0.4163533739)
(0.2234811476 0 -0.4541016735)
(0.2939396227 0 0.3286634878)
(0.2602100592 0 0.4192579661)
(0.259341734 0 -0.3267889129)
(0.248292015 0 -0.3035037488)
(1.171436494 0 1.180143808)
(0.8722483096 0 1.136145277)
(0.3940655122 0 1.56459949)
(-0.8302925752 0 0.8208125409)
(0.125361209 0 1.413378348)
(0.0589417645 0 1.182519328)
(-0.6690630154 0 0.6840432979)
(0.2184044016 0 0.1515717267)
(0.3134370283 0 0.147392125)
(0.4595769543 0 0.1358123418)
(0.8143201873 0 0.418499875)
(1.277808151 0 0.8925812053)
(0.08178517384 0 0.564836545)
(0.08938974205 0 0.1641070662)
(0.5776468313 0 -0.4072446209)
(0.5835440744 0 -0.391364137)
(0.5182984004 0 0.273832222)
(0.3708378694 0 0.2091876407)
(0.3413803826 0 0.1994099024)
(1.244699316 0 -0.8657586304)
(1.594866865 0 -0.947471333)
(1.77261358 0 -0.9070029181)
(1.494591308 0 -0.8455431083)
(1.891222765 0 -0.7654260853)
(1.859052005 0 -0.4353458018)
(1.743939528 0 -0.4278912821)
(0.3142199029 0 0.07804850185)
(0.980951604 0 0.3046479185)
(1.072595391 0 0.3386060355)
(1.049818298 0 0.3645633605)
(1.018663946 0 0.3950827752)
(1.055852319 0 0.4228805079)
(0.7465178088 0 0.3594202926)
(1.758408433 0 -0.4427903875)
(0.9007616509 0 -0.7998885656)
(0.9558285091 0 -0.7339855208)
(1.054538371 0 -0.836169896)
(0.8272674227 0 -0.5694207251)
(0.4857422393 0 -0.2198938096)
(0.750034693 0 -0.4405108119)
(0.4289543041 0 -0.1546248824)
(0.3572620136 0 -0.1188865169)
(0.3917854109 0 -0.1276282016)
(0.3777626814 0 -0.1028322909)
(0.5808815744 0 -0.1198734541)
(0.5906905108 0 -0.1237423804)
(0.769482926 0 -0.1256263462)
(0.81808871 0 -0.0930825151)
(0.7905707403 0 -0.09031589085)
(0.7832411089 0 -0.04176111957)
(0.6021449556 0 0.06648400886)
(0.3239863564 0 0.0463807444)
(-0.2800744996 0 -0.1544324358)
(-0.2567483407 0 -0.1388719543)
(-0.2451324321 0 -0.1269252773)
(-0.2375875983 0 -0.1235742225)
(-0.2369186957 0 -0.114140826)
(-0.2341074354 0 -0.1056404742)
(-0.2445126907 0 -0.1058128899)
(-0.2486486181 0 -0.09504115168)
(-0.2401470815 0 -0.08535862747)
(-0.2502652778 0 -0.08263413774)
(-0.2509264755 0 -0.07121439015)
(-0.2413814686 0 -0.06356388085)
(-0.2535047529 0 -0.06240602486)