/*--------------------------------*- C++ -*----------------------------------*\
| =========                 |                                                 |
| \\      /  F ield         | OpenFOAM: The Open Source CFD Toolbox           |
|  \\    /   O peration     | Version:  2.1.x                                 |
|   \\  /    A nd           | Web:      www.OpenFOAM.org                      |
|    \\/     M anipulation  |                                                 |
\*---------------------------------------------------------------------------*/
FoamFile
{
    version     2.0;
    format      ascii;
    class       surfaceScalarField;
    location    "0.4";
    object      phi;
}
// * * * * * * * * * * * * * * * * * * * * * * * * * * * * * * * * * * * * * //

dimensions      [1 1 -1 0 0 0 0];

internalField   nonuniform List<scalar> 
5536
(
1.271470786e-11
-2.676741617e-11
-1.653427781e-11
1.417922388e-11
-1.395050675e-10
2.184037654e-11
-3.005650473e-11
-3.281262636e-10
2.161719858e-11
-3.966373134e-11
-6.606297063e-10
9.315731004e-11
-2.016400968e-10
-1.028885864e-09
-4.130742811e-10
-1.086150211e-10
7.567341363e-11
-1.776580926e-10
-3.845478647e-11
7.6339971e-11
3.005987258e-11
-8.277601383e-11
-1.92109278e-11
2.81444605e-11
8.752167664e-12
-2.986006918e-11
-6.160031524e-12
1.867241603e-11
5.780935232e-12
-1.43827888e-11
-8.046642266e-12
1.156086897e-10
8.230964553e-12
-9.299920057e-11
9.053670431e-12
4.180951762e-10
-2.679206772e-11
-4.289296388e-10
6.710864798e-11
8.169698805e-10
-1.406923754e-10
-8.172998175e-10
2.316340068e-10
1.117435685e-09
-3.271136731e-10
-1.22361662e-09
4.081158396e-10
8.732433184e-10
-4.710256445e-10
-8.978061139e-10
4.208808623e-10
8.176371154e-10
-6.248155652e-10
2.14962697e-10
-3.439814516e-10
-2.598270835e-10
-4.96800739e-10
2.729453935e-10
-8.241927879e-10
-3.332898014e-10
4.045950766e-10
2.567410458e-10
-9.144240712e-10
-2.217763695e-10
3.506520987e-10
1.398312846e-10
-6.123126676e-10
-1.131407203e-10
2.288061499e-10
1.013672045e-10
-3.026341205e-10
-8.099919267e-11
1.02307348e-10
4.444131723e-11
-1.319980635e-10
-1.877225953e-11
3.159280173e-11
9.054131393e-12
-3.3391162e-11
-6.567737748e-12
1.289112605e-11
4.189581656e-12
-1.291037336e-11
-3.046546927e-12
6.751884053e-11
3.216391262e-13
-4.202517369e-11
1.710490573e-12
3.509220467e-10
-3.044526301e-11
-2.492582265e-10
8.066556652e-11
7.411996168e-10
-1.419072133e-10
-6.803637667e-10
2.411866545e-10
1.361935492e-09
-3.892896571e-10
-1.605733153e-09
5.518898693e-10
1.034555748e-09
-6.504031988e-10
-1.517299718e-09
5.375380708e-10
6.957506107e-10
-4.087467858e-10
-9.521644007e-10
3.473886519e-10
5.287619076e-10
-3.157132265e-10
-6.312240966e-10
2.861190023e-10
3.844444343e-10
-2.590037164e-10
-4.150282863e-10
2.389991981e-10
-3.578212726e-10
2.87034131e-10
-2.253558433e-10
1.316354814e-09
-2.210573757e-09
-1.229049893e-09
1.844931063e-09
1.573989791e-09
-3.425381535e-09
-1.897983509e-09
2.568707099e-09
2.049835797e-09
-4.670357393e-09
-1.836226594e-09
1.640827429e-09
1.322185314e-09
-3.187056492e-09
-7.24463733e-10
4.325648853e-10
2.950728662e-10
-8.994983566e-10
-1.326311924e-10
1.590989832e-10
7.898279528e-11
-2.068484876e-10
-3.697388317e-11
3.946708974e-11
1.814228094e-11
-4.765872794e-11
-9.141524453e-12
1.341436307e-11
4.688537379e-12
-1.471200466e-11
-2.448817885e-12
2.419708491e-11
-2.824042226e-13
-1.380659633e-11
5.527914328e-13
1.672736809e-10
-1.574817837e-11
-1.161645054e-10
4.149045091e-11
6.611972465e-10
-1.065978662e-10
-6.446343795e-10
2.603780523e-10
1.786124913e-09
-5.065867264e-10
-1.682776734e-09
8.238389522e-10
2.234245168e-09
-1.16442893e-09
-2.566907761e-09
1.259478781e-09
1.3690101e-09
-1.032068729e-09
-1.773129897e-09
7.532535245e-10
7.584745486e-10
-5.663744853e-10
-8.734956196e-10
4.572554397e-10
4.670332872e-10
-3.851475086e-10
-5.149027896e-10
3.293407286e-10
3.516349156e-10
-2.896766347e-10
-3.674121787e-10
2.809749004e-10
5.920689614e-10
-4.829936014e-10
4.744907473e-10
-3.324562258e-10
-5.904455517e-10
-7.494816056e-10
2.532005637e-09
2.14235695e-09
-1.973380044e-09
-2.030713127e-09
2.637933925e-09
2.226004428e-09
-2.751574448e-09
-2.787445306e-09
4.675497886e-09
3.516440544e-09
-4.86081717e-09
-3.94972704e-09
5.640668352e-09
3.83766121e-09
-5.262220439e-09
-3.312501445e-09
3.969176591e-09
2.584393223e-09
-3.850623642e-09
-1.792912534e-09
1.473474022e-09
1.03580461e-09
-1.79187164e-09
-4.230534901e-10
2.559509432e-10
1.251553385e-10
-3.160917116e-10
-5.677833077e-11
5.88149994e-11
3.219861704e-11
-7.281098491e-11
-1.664161216e-11
1.701020894e-11
6.868690203e-12
-2.062136352e-11
-2.221273461e-12
7.80986848e-12
-3.925664471e-13
-4.724295037e-12
2.466936241e-13
1.001468802e-10
-5.654291474e-12
-1.288777956e-10
2.850901593e-11
6.121661029e-10
-1.246113302e-10
-6.060004645e-10
2.699676684e-10
1.366139626e-09
-4.455914828e-10
-1.065466662e-09
6.676253592e-10
2.289574214e-09
-9.712110129e-10
-1.761967315e-09
1.282159734e-09
1.953424439e-09
-1.364769655e-09
-1.871892608e-09
1.168427416e-09
9.556693598e-10
-8.767174218e-10
-1.005191524e-09
6.594605762e-10
5.473232666e-10
-5.301138147e-10
-5.634240359e-10
4.469061076e-10
3.898046554e-10
-3.872287097e-10
-4.105064922e-10
3.564595182e-10
4.77226604e-10
-3.760943314e-10
-4.918987604e-10
4.562322242e-10
6.787956518e-10
-5.552444268e-10
-6.723153804e-10
5.978217362e-10
-5.751829192e-10
-5.225747449e-10
1.596317959e-09
1.361470065e-09
-8.937874174e-10
-1.207104103e-09
1.489567142e-09
1.249721728e-09
-1.109659388e-09
-1.486881471e-09
2.518843572e-09
1.94428314e-09
-2.04672191e-09
-2.504100908e-09
4.176351814e-09
2.86891404e-09
-3.185277909e-09
-2.853059874e-09
4.231647613e-09
2.565941779e-09
-3.154032121e-09
-2.196761234e-09
3.296008757e-09
1.826867874e-09
-2.669354158e-09
-1.451257401e-09
1.836909495e-09
1.054719794e-09
-1.72480362e-09
-6.559067732e-10
4.058803461e-10
3.175313078e-10
-4.724517014e-10
-9.444168296e-11
7.265767616e-11
2.656261944e-11
-6.955548065e-11
-8.294553629e-12
1.976932392e-11
2.234099363e-12
-1.525255318e-11
-1.921557607e-12
4.757991407e-12
6.686453789e-13
-6.893473883e-12
7.075211831e-14
2.109954084e-10
-4.504401994e-12
-3.411755743e-10
7.077878206e-11
6.625263888e-10
-1.827987489e-10
-7.712619132e-10
2.850667093e-10
8.960608306e-10
-3.703199013e-10
-8.477957642e-10
4.542371277e-10
1.307406313e-09
-5.744451547e-10
-1.016061885e-09
7.538966045e-10
1.650038125e-09
-9.470462768e-10
-1.405759815e-09
1.046611919e-09
1.041638256e-09
-9.722535463e-10
-1.084610292e-09
7.978982711e-10
5.700673897e-10
-6.393417058e-10
-5.78473612e-10
5.291727599e-10
4.267649472e-10
-4.610189875e-10
-4.391340211e-10
4.352005253e-10
5.127383559e-10
-4.614301466e-10
-5.262021177e-10
5.401661827e-10
6.845951091e-10
-6.427949844e-10
-6.826542218e-10
7.190142046e-10
6.771479699e-10
-7.477885093e-10
-7.50079887e-10
7.625513892e-10
-7.568638578e-10
-8.095349673e-10
7.231665932e-10
-5.417084478e-10
-6.020141426e-10
5.574153091e-10
5.986652904e-10
-4.384695816e-10
-5.909811035e-10
8.29246996e-10
6.955303484e-10
-6.22628895e-10
-8.808595971e-10
1.519647754e-09
1.139670728e-09
-1.067724258e-09
-1.388361804e-09
2.271179053e-09
1.492237333e-09
-1.567824863e-09
-1.417956426e-09
2.285814736e-09
1.262373054e-09
-1.660262563e-09
-1.117291987e-09
2.130436024e-09
9.99953434e-10
-1.715026711e-09
-8.804161578e-10
1.575617645e-09
7.251372973e-10
-1.430250715e-09
-5.235557829e-10
4.970268796e-10
3.046610653e-10
-5.156899383e-10
-1.313090608e-10
5.782922302e-11
4.558338403e-11
-4.709092474e-11
-1.389457039e-11
1.105497173e-11
2.767709644e-12
-9.353708066e-12
-2.2302401e-12
1.118350253e-11
1.843866056e-12
-1.706280537e-11
1.486896089e-13
4.722894032e-10
-8.012784619e-12
-5.134380552e-10
1.338213531e-10
8.918946494e-10
-2.470340518e-10
-9.72179444e-10
3.513170146e-10
8.735770799e-10
-4.212753765e-10
-9.298173163e-10
4.525201561e-10
8.560040971e-10
-4.746518605e-10
-7.738857379e-10
5.279862229e-10
1.183474394e-09
-6.409018433e-10
-9.830193036e-10
7.980678487e-10
1.120292593e-09
-9.022518061e-10
-1.084906902e-09
8.533037629e-10
5.982842817e-10
-6.971953362e-10
-6.200388112e-10
5.524989242e-10
4.484519825e-10
-4.767413107e-10
-4.49118689e-10
4.689394079e-10
5.186169872e-10
-5.114469468e-10
-4.81062142e-10
5.872747274e-10
6.380792793e-10
-6.810144037e-10
-5.561579439e-10
7.790703146e-10
7.263317049e-10
-8.722966005e-10
-6.217370534e-10
9.585294472e-10
7.922849067e-10
-6.888090362e-10
1.106541776e-09
-1.037238962e-09
-4.194651141e-10
-5.18229468e-10
3.290541036e-10
3.633344224e-10
-2.460281399e-10
-3.276068596e-10
3.364276346e-10
3.375152945e-10
-2.674036239e-10
-3.742482507e-10
4.724057538e-10
4.308639821e-10
-3.651835695e-10
-5.068904643e-10
7.375493752e-10
5.989219314e-10
-5.208103856e-10
-6.86382595e-10
1.071553497e-09
7.296864396e-10
-7.350711335e-10
-7.106746817e-10
1.228868254e-09
6.598645917e-10
-9.326713248e-10
-6.166361364e-10
1.411582033e-09
5.919989618e-10
-1.195625728e-09
-5.628007184e-10
1.30644599e-09
5.007748753e-10
-1.212184358e-09
-3.941083159e-10
5.38413864e-10
2.563093227e-10
-5.597593505e-10
-1.213235156e-10
4.722982093e-11
3.79981046e-11
-5.796415497e-11
-1.439657597e-11
9.225677778e-12
3.84266091e-12
-9.592632114e-12
-5.060494629e-12
2.323725336e-11
4.365757931e-12
-2.787804718e-11
6.045851342e-15
4.534639936e-10
-1.022067331e-11
-3.624172645e-10
1.098233406e-10
9.689032317e-10
-2.342348294e-10
-8.792140098e-10
3.647062799e-10
9.757648486e-10
-4.645948547e-10
-9.745554127e-10
5.02805591e-10
7.288592789e-10
-4.929250675e-10
-6.938155464e-10
4.790078307e-10
8.017685066e-10
-5.014430339e-10
-6.477231755e-10
5.780250211e-10
9.208815779e-10
-6.749310319e-10
-6.798087357e-10
7.096002045e-10
5.925535509e-10
-6.450802723e-10
-4.754047271e-10
5.456679597e-10
4.206652969e-10
-4.794057916e-10
-3.440548025e-10
4.576050948e-10
4.103680018e-10
-4.656426071e-10
-3.163223864e-10
4.906014087e-10
5.457769181e-10
-5.558465639e-10
-1.586979233e-09
6.968628214e-10
4.976087817e-10
-6.72572917e-10
-5.387935253e-10
6.810481313e-10
5.502966796e-10
-7.337063307e-10
-4.24026207e-10
7.988617519e-10
5.588316879e-10
-4.77340982e-10
9.775376523e-10
-8.64147931e-10
3.460155266e-10
5.474405899e-10
-2.804032039e-10
-3.001182918e-10
1.974976138e-10
2.455015611e-10
-1.651372174e-10
-2.37417731e-10
2.180666729e-10
2.487460043e-10
-1.818603682e-10
-2.691160535e-10
2.887323369e-10
2.959607553e-10
-2.338015693e-10
-3.286153324e-10
3.870406086e-10
3.641955155e-10
-3.046431007e-10
-3.947114573e-10
5.122257326e-10
4.114830179e-10
-3.69409875e-10
-4.154486269e-10
7.257042691e-10
4.120837382e-10
-5.772926988e-10
-4.09530997e-10
1.043357612e-09
4.240647493e-10
-9.355215521e-10
-4.356282912e-10
1.148724619e-09
4.11770147e-10
-1.111658634e-09
-3.386542337e-10
5.74698407e-10
2.348869839e-10
-5.847337924e-10
-1.294364119e-10
7.346646255e-11
5.307061061e-11
-8.96335858e-11
-2.528880713e-11
1.080795135e-11
1.194633821e-11
-1.315248861e-11
-8.446489904e-12
2.930153728e-11
6.659028319e-12
-2.802204555e-11
-7.923634941e-13
2.748607271e-10
-8.322230942e-12
-1.955622207e-10
7.045001355e-11
7.305451802e-10
-1.655546141e-10
-5.555782529e-10
2.789496814e-10
9.064180947e-10
-3.892460367e-10
-7.760861664e-10
4.605882329e-10
6.515729484e-10
-4.713140738e-10
-5.929563106e-10
4.436981211e-10
5.255895157e-10
-4.156752396e-10
-4.255553475e-10
4.075295189e-10
4.721071833e-10
-4.117745242e-10
-3.254689178e-10
4.053792367e-10
3.330528601e-10
-3.790115795e-10
-2.296863617e-10
3.441746562e-10
2.499507626e-10
-3.144726255e-10
-1.782956126e-10
2.955873195e-10
2.268152485e-10
-2.88349127e-10
-1.604797615e-10
2.909710051e-10
5.961145652e-09
-6.783035793e-10
-1.068810559e-08
7.60395122e-09
2.657996139e-09
-8.79854261e-09
-1.173321814e-08
3.72925229e-09
3.470514699e-10
-9.468955616e-10
-6.344734881e-10
5.352890984e-10
3.78897008e-10
-5.578795928e-10
-2.998337871e-10
6.134936115e-10
-3.278838251e-10
-7.518751006e-10
-7.013352862e-10
-8.094965796e-10
3.55601877e-10
2.441460796e-10
-2.209420708e-10
-2.349742589e-10
1.422915257e-10
1.985535937e-10
-1.241290143e-10
-1.965303674e-10
1.548791959e-10
2.054537559e-10
-1.335926453e-10
-2.178375771e-10
1.946003758e-10
2.320386094e-10
-1.672137081e-10
-2.485812453e-10
2.509160732e-10
2.679070265e-10
-2.141732104e-10
-2.870598311e-10
2.832806272e-10
2.975084029e-10
-2.35791585e-10
-2.98423861e-10
4.684790688e-10
3.087369585e-10
-3.876263814e-10
-3.260793091e-10
8.568825524e-10
3.678516219e-10
-7.938093435e-10
-4.155329373e-10
1.091983969e-09
4.248120703e-10
-1.076741953e-09
-3.68221265e-10
5.939632534e-10
2.664506669e-10
-6.04980613e-10
-1.561901682e-10
1.061204535e-10
7.580961003e-11
-1.24657675e-10
-3.809253609e-11
1.75975037e-11
2.30295821e-11
-3.080638192e-11
-1.054467855e-11
2.96211658e-11
9.493544503e-12
-5.527044695e-11
-1.478055399e-12
1.264620697e-10
-4.852226321e-12
-7.238037169e-11
3.52276711e-11
3.830082725e-10
-8.722791789e-11
-2.342791058e-10
1.528914314e-10
6.065479452e-10
-2.298749584e-10
-4.275083729e-10
3.069621338e-10
5.145948489e-10
-3.5232212e-10
-4.15147037e-10
3.484495171e-10
3.359612777e-10
-3.147845195e-10
-2.51689485e-10
2.770144918e-10
2.250108364e-10
-2.460285144e-10
-1.570480139e-10
2.22820843e-10
1.601243987e-10
-2.047419633e-10
-1.16368658e-10
1.893238005e-10
1.257618356e-10
-1.759448007e-10
-8.979731123e-11
1.655082979e-10
1.106440778e-10
-1.600469722e-10
-7.262215361e-11
1.654029123e-10
1.036464669e-08
-9.52434028e-10
-5.529077498e-09
1.263126213e-08
1.917567314e-08
-2.624510089e-08
-1.368897929e-08
2.866402287e-08
2.778840912e-09
-1.745706194e-08
-4.969672838e-09
4.447943418e-09
2.463253283e-10
-7.278801255e-10
-2.279659114e-10
4.413017424e-10
2.141094546e-10
-2.138522197e-10
5.799947302e-10
-4.709047757e-10
6.373503922e-10
-4.056234781e-10
-4.472300908e-10
2.852734577e-10
2.007940812e-10
-1.662628252e-10
-1.935493268e-10
1.070846428e-10
1.613488345e-10
-8.875985471e-11
-1.62798896e-10
1.134493366e-10
1.783640369e-10
-8.838617826e-11
-1.996769033e-10
1.475270665e-10
2.211445787e-10
-1.281462418e-10
-2.381991911e-10
1.901997356e-10
2.495981004e-10
-1.777217482e-10
-2.587204926e-10
2.115365858e-10
2.687597182e-10
-1.996561709e-10
-2.73647466e-10
3.268869297e-10
2.770018736e-10
-2.795941515e-10
-3.050878886e-10
7.322057551e-10
3.657282165e-10
-6.583668322e-10
-4.473290736e-10
1.048605724e-09
4.949626192e-10
-9.863531927e-10
-4.662277557e-10
6.171335187e-10
3.700085246e-10
-6.22153224e-10
-2.354868833e-10
1.490546486e-10
1.207796097e-10
-1.801692306e-10
-6.95847204e-11
8.286466062e-11
6.392776986e-11
-2.638951914e-10
-3.428628941e-11
1.679921586e-10
4.640115855e-11
-5.42275254e-10
-2.943527421e-12
3.834625668e-11
-9.50727575e-12
-2.394517603e-11
1.160862861e-11
1.223161653e-10
-2.82214044e-11
-5.186010602e-11
5.259085572e-11
2.671045318e-10
-8.85252599e-11
-1.465236602e-10
1.389438085e-10
2.955458157e-10
-1.845426345e-10
-1.720913478e-10
1.994407311e-10
1.717808684e-10
-1.858392348e-10
-9.949918982e-11
1.631754826e-10
1.112559005e-10
-1.419417807e-10
-8.803515647e-11
1.339065435e-10
1.067710159e-10
-1.399547971e-10
-1.755324964e-10
1.471232589e-10
8.173479819e-11
-1.418961924e-10
-1.508440087e-10
1.232753166e-10
5.421509233e-11
-1.016049569e-10
-6.110671756e-11
8.761822591e-11
1.274572575e-09
-1.060863187e-10
-3.518572311e-11
1.556181853e-09
5.316919899e-10
-1.021296775e-09
-5.308599256e-11
2.793114212e-10
2.939351544e-10
-1.572384398e-10
-8.392551848e-11
1.934794498e-10
1.535387363e-10
-2.514198115e-10
-1.124003843e-10
2.975502704e-10
1.718386236e-10
-1.302702566e-10
3.613235981e-10
-3.339563478e-10
2.274880438e-10
3.659493278e-10
-1.937914916e-10
-2.539694751e-10
1.095181119e-10
1.700810541e-10
-9.170116956e-11
-1.082192452e-10
6.960077658e-11
6.751198575e-11
-5.58274129e-11
-4.67528658e-11
5.405123202e-11
4.082848183e-11
-3.997639154e-11
-4.855186819e-11
9.547720332e-11
7.294812736e-11
-6.151221299e-11
-1.152988962e-10
1.743603334e-10
1.702009165e-10
-1.227390662e-10
-2.248477689e-10
1.944845149e-10
2.675092787e-10
-1.676781136e-10
-2.945270188e-10
2.408890417e-10
2.98654193e-10
-2.091889599e-10
-3.156351642e-10
5.637681354e-10
3.668902165e-10
-4.520948072e-10
-4.446515566e-10
8.702447892e-10
5.035715761e-10
-6.967252661e-10
-5.168355395e-10
5.975342257e-10
4.668218031e-10
-5.224136289e-10
-3.480415308e-10
2.186820462e-10
2.313502799e-10
-3.371603423e-10
-2.673679797e-10
1.010784998e-09
7.259491427e-10
-7.039397222e-09
-1.2658324e-09
1.761022198e-09
1.186955112e-09
-4.252440186e-09
-5.815216521e-11
2.576273466e-11
-7.335589493e-12
-4.940912887e-11
9.015148897e-12
1.861107719e-11
-7.550110435e-12
-9.978653041e-12
8.958581126e-12
7.319796022e-11
-2.003446182e-11
-3.592315573e-11
4.221526281e-11
7.900468581e-11
-6.047212104e-11
-2.761321257e-11
6.56055923e-11
4.444825766e-11
-6.202702347e-11
-1.731255705e-11
5.533010853e-11
9.875992714e-11
-4.89509175e-11
-1.429667908e-10
1.406275724e-10
3.991189012e-10
-3.740395301e-10
-8.329028474e-10
6.628768927e-10
4.180129005e-10
-8.178692816e-10
-1.099100269e-09
7.309716917e-10
1.428123328e-10
-4.918939763e-10
-4.04942266e-10
2.619643086e-10
3.457040359e-11
-1.228645277e-10
-6.10730064e-11
6.693665894e-11
3.624733308e-11
-5.939620232e-11
-2.438306099e-11
7.505395819e-11
5.94067963e-11
-1.015385049e-10
-3.919141043e-11
1.330957181e-10
8.221393254e-11
-1.663640127e-10
-5.71591546e-11
1.990312966e-10
9.669705102e-11
-2.29294618e-10
-7.065892933e-11
2.55840901e-10
9.394116711e-11
-4.754445171e-11
-2.763820064e-10
3.721031729e-10
1.506578419e-10
-1.033327578e-10
-2.789050517e-10
5.899364032e-11
2.108855954e-10
-2.562055969e-11
-1.429755157e-10
2.851950096e-11
9.11959834e-11
-1.057953128e-11
-6.163998875e-11
1.831291662e-11
5.356555679e-11
-8.538350819e-12
-6.42452302e-11
3.388066065e-11
8.941868766e-11
-2.055269687e-11
-1.232337594e-10
7.846947411e-11
1.623552822e-10
-4.261888169e-11
-2.072112781e-10
1.37505625e-10
2.539644783e-10
-8.37690346e-11
-2.915684015e-10
1.737728845e-10
3.10497393e-10
-1.3557591e-10
-3.14377923e-10
3.410529692e-10
3.19703076e-10
-2.500483333e-10
-3.231529532e-10
4.921150133e-10
3.262209501e-10
-3.019346752e-10
-3.455463227e-10
4.151976713e-10
3.580893766e-10
-3.126471254e-10
-3.899143497e-10
9.924291341e-10
1.089633325e-09
-6.635358082e-09
-6.804230119e-09
4.207087512e-08
2.384703279e-08
-1.007171702e-07
-9.407404229e-09
6.105899553e-09
3.588177538e-09
-6.138206477e-09
-2.109145999e-11
9.156681672e-11
-8.317076592e-11
-9.819498409e-11
5.564109648e-11
1.145707619e-11
-2.310002008e-11
-1.144342221e-11
7.612099692e-12
1.799610995e-11
-7.862448168e-12
-6.981659102e-12
1.072635998e-11
7.176269046e-12
-1.02279913e-11
-1.483895659e-12
8.712831044e-12
9.236235638e-12
-9.854899843e-12
-9.43193484e-12
1.434205991e-11
1.97026754e-10
-2.530553926e-11
-2.181903388e-10
3.610253825e-10
1.398616109e-09
-1.382244897e-09
-1.693886806e-09
2.962805875e-09
2.214900255e-09
-4.381972016e-09
-2.955394535e-09
4.79656851e-09
1.016352672e-09
-3.870248062e-09
-1.74980265e-09
2.210399499e-09
1.382402595e-10
-9.220186504e-10
-2.568131489e-10
3.19810144e-10
2.043351364e-11
-1.077265101e-10
-2.361066282e-11
5.26750171e-11
2.432357107e-11
-5.31011692e-11
-1.552777498e-11
7.25955507e-11
3.815983383e-11
-9.996000197e-11
-2.777678362e-11
1.312882817e-10
5.144318353e-11
-1.640570791e-10
-4.175404671e-11
1.954682307e-10
1.865127822e-11
1.794136503e-11
-2.273036994e-10
5.791036857e-10
-6.237525955e-10
-7.736333037e-10
3.921374663e-10
9.192656954e-11
-1.333521608e-10
-1.701375645e-10
6.833098874e-12
8.427408489e-11
-2.315607127e-12
-4.652598835e-11
2.913317157e-12
2.885745634e-11
-4.578231289e-13
-2.67837931e-11
4.42481325e-12
3.685162558e-11
-1.048175377e-12
-5.543935299e-11
1.106060215e-11
7.920198987e-11
-2.542446605e-12
-1.050474242e-10
2.151608208e-11
1.30195406e-10
-4.984245944e-12
-1.52506248e-10
3.7699828e-11
1.710086139e-10
-9.020628368e-12
-1.873004232e-10
8.248663817e-11
2.069675225e-10
-1.990252593e-11
-2.347005985e-10
1.797662912e-10
2.29666087e-10
-1.349632565e-10
-1.645498877e-10
1.652667063e-10
1.216102136e-10
-8.989473352e-11
-1.258031115e-10
4.308921612e-10
4.469125928e-10
-8.325454907e-11
-9.029393801e-09
2.638503197e-08
5.707556748e-08
-1.032064853e-10
-1.101543142e-07
7.59562432e-08
7.123894381e-08
-5.18852203e-09
-7.608496269e-09
6.03261445e-09
-2.064112293e-08
-5.357529879e-13
3.28228234e-09
8.127505807e-11
-1.07088713e-10
-1.311739924e-13
3.981745973e-11
7.92196952e-12
-2.225357545e-11
-2.842894322e-14
8.25903241e-12
1.230122678e-13
4.346657757e-14
-1.289238963e-13
5.8087835e-14
1.45346601e-13
-1.787058339e-13
-1.519432802e-13
2.638315773e-13
1.170992556e-11
-1.292628977e-11
-9.829516464e-12
2.007326154e-11
1.529355426e-10
-2.692357981e-11
-1.883700237e-11
3.697319925e-10
1.260645445e-09
-1.413574625e-09
-3.068026892e-10
3.069258678e-09
2.340989112e-09
-4.750312809e-09
-6.64148283e-10
5.742311022e-09
1.667774104e-09
-5.554556908e-09
-5.537194239e-10
4.127337283e-09
2.729089912e-10
-2.174406277e-09
-4.5361646e-11
8.584509885e-10
2.360683987e-11
-2.888821323e-10
-5.625249265e-12
9.565468071e-11
1.270158167e-11
-4.960593181e-11
-1.190996695e-11
5.597996012e-11
2.721133037e-11
-8.442180831e-11
-3.451723462e-11
1.252684525e-10
4.369180734e-11
-1.696376131e-10
-5.877544171e-11
2.075419631e-10
4.78473273e-11
-6.152988033e-11
2.509379493e-10
-2.32977532e-10
6.488846532e-10
-5.980489514e-10
-1.061658702e-09
6.443120375e-10
1.909459262e-10
-2.050165131e-10
-3.093853155e-10
5.926767013e-12
1.31005908e-10
-5.796747401e-13
-6.418295239e-11
-3.976670243e-13
3.703613578e-11
2.79819448e-12
-3.113830681e-11
-1.5207149e-12
3.975988829e-11
4.399387268e-12
-6.010869493e-11
-4.457384371e-12
9.05186301e-11
1.298469627e-11
-1.285857336e-10
-9.288205857e-12
1.705036898e-10
2.975271413e-11
-2.122671261e-10
-1.660876983e-11
2.516966344e-10
5.659724655e-11
-2.904486546e-10
-4.186450756e-11
3.333574711e-10
9.035492672e-11
-3.344520331e-10
9.648619576e-11
1.786377636e-10
-5.750259123e-11
-7.20020127e-11
5.576453091e-11
4.520436413e-11
-3.562321682e-11
-4.648008743e-11
6.246867134e-11
4.664528434e-11
-6.031904499e-11
-3.504383498e-11
1.45545898e-11
7.842423233e-12
-7.430364402e-12
-4.790121979e-12
7.162039044e-13
1.760268824e-12
1.708299946e-12
-2.207456162e-14
-2.200820257e-13
5.902380789e-14
2.31021784e-13
2.510325963e-14
9.918387922e-17
-4.19117167e-14
3.481255962e-14
1.262128009e-14
-3.854708203e-14
-5.60424704e-15
4.288581835e-14
2.459175733e-14
-5.911836485e-14
-6.677134156e-14
1.5744288e-13
1.821327729e-13
-7.829852583e-14
-1.20339377e-11
1.214973377e-11
8.709224443e-11
-4.203588951e-12
-1.491247481e-10
5.836183409e-11
1.419921005e-10
-5.242872212e-11
-1.041346737e-10
9.083602676e-11
1.323527574e-10
-1.747318466e-10
-2.690421137e-10
2.346307572e-10
4.915088676e-10
-1.905351652e-10
-7.63898539e-10
4.005467471e-10
1.072401922e-09
-2.673992776e-10
-1.418975071e-09
6.373394154e-10
1.809097021e-09
-8.863958618e-11
-2.202364423e-09
1.061554659e-09
2.565224376e-09
-4.310536475e-12
-2.255666917e-09
5.358950886e-10
8.021078801e-10
5.102190634e-12
-1.539044307e-10
2.002958146e-11
1.100216317e-10
2.96211914e-11
-1.869198046e-10
2.607714752e-11
2.983906345e-10
7.083426576e-11
-4.02546195e-10
-3.810090953e-12
4.555186899e-10
7.457140649e-11
-4.464606807e-11
3.832380009e-10
-4.397255432e-10
4.95267394e-10
-4.035153753e-10
-1.110982444e-09
9.618832113e-10
1.695332614e-10
-1.545697398e-10
-6.785339818e-10
-1.710871889e-11
3.969093231e-10
4.129783753e-11
-2.210481873e-10
-1.108966739e-11
1.330387644e-10
3.071631406e-11
-8.570170528e-11
-8.010341023e-12
6.28561726e-11
1.560001869e-11
-5.89225977e-11
-1.734929192e-11
7.034800271e-11
1.987527174e-11
-9.541353921e-11
-4.259304684e-11
1.327871343e-10
4.430322087e-11
-1.780852703e-10
-8.38569006e-11
2.219566058e-10
9.422183789e-11
-2.510197398e-10
-1.130082416e-10
2.448418186e-10
1.247442312e-10
-1.682495596e-10
2.150901479e-11
6.448953578e-11
3.34480671e-12
-1.938965831e-11
2.115245606e-11
1.945844594e-11
-1.198841551e-11
-3.238078078e-11
5.097677946e-11
3.878913635e-11
-3.269985428e-11
-4.385030029e-11
-1.22278655e-11
5.396652112e-11
2.760151256e-11
-4.336165174e-11
-5.160177827e-12
1.113820333e-11
2.0543955e-11
-1.861109549e-12
-8.923079999e-13
1.065577094e-12
3.478543751e-12
-2.654423636e-13
-3.890565246e-12
-4.047724043e-12
4.07249691e-11
9.886411875e-12
-4.747057986e-12
-1.405208558e-11
3.56533323e-11
1.910304193e-11
-6.549018582e-12
-2.625261428e-11
4.064835947e-11
3.290697569e-11
-1.915565353e-11
-4.243124833e-11
6.174998776e-11
6.929112867e-11
-4.730505655e-11
-1.325569915e-10
7.384369128e-11
2.068259866e-10
-1.358574847e-10
-2.180699217e-10
2.014881653e-10
2.335286014e-10
-2.671833347e-10
-3.048928126e-10
3.266301028e-10
4.651273275e-10
-5.255568279e-10
-7.418839308e-10
6.826464198e-10
1.178150052e-09
-1.002553893e-09
-1.865633777e-09
1.532952365e-09
2.984354024e-09
-2.147145152e-09
-4.824679241e-09
3.519075208e-09
8.641349185e-09
-2.266157516e-09
-1.210439227e-08
3.770461759e-09
1.021012696e-08
-9.627769646e-11
-3.688763847e-09
2.786363371e-10
5.826702458e-10
-7.679532923e-11
-2.407298163e-10
1.395311163e-10
3.279903755e-10
-6.202110972e-11
-4.604332519e-10
1.694099783e-10
5.454895713e-10
1.904616598e-11
2.534355868e-11
4.566608754e-10
-5.310890838e-10
3.455208276e-10
-2.460741226e-10
-1.034031689e-09
1.101435839e-09
2.284963792e-10
-2.898962462e-10
-1.116009008e-09
4.377496735e-11
1.043445884e-09
-2.365481221e-10
-8.689396893e-10
-2.739396266e-11
7.023532519e-10
3.347703314e-11
-6.794010562e-10
-2.669551111e-11
6.271285964e-10
1.680977737e-10
-4.463113807e-10
-2.326072597e-11
2.882112109e-10
8.193458956e-11
-2.291424242e-10
-4.162309055e-11
2.302723204e-10
6.174086796e-11
-2.455466071e-10
-8.661227172e-11
2.488959196e-10
6.665722914e-11
-2.268448821e-10
-1.108346761e-10
1.850908174e-10
5.53699909e-11
-1.798087342e-10
-1.292745652e-11
3.321743361e-10
1.088206879e-10
-6.943817953e-10
-7.357532573e-13
1.117816061e-09
4.109865895e-10
-1.460175985e-09
3.117061279e-11
1.808180612e-09
1.28404612e-09
-2.111065118e-09
-8.473207935e-11
2.032405153e-09
1.857793858e-09
-1.56568064e-09
-4.760047161e-10
1.097296991e-09
1.098316302e-09
-5.625465566e-10
-3.949475735e-12
1.665249233e-10
2.676512702e-10
-6.722187615e-13
-1.758842244e-10
-5.079760653e-11
4.721171471e-10
1.057686774e-10
-1.440897599e-10
-1.350831709e-10
3.850169161e-10
1.56594645e-10
-1.36815866e-10
-1.869417569e-10
3.230084398e-10
2.27938632e-10
-1.796038911e-10
-2.788928258e-10
4.017009347e-10
3.497654183e-10
-1.727185578e-10
-4.66787299e-10
4.050216151e-10
5.449484404e-10
-3.182358178e-10
-5.793949463e-10
5.472304274e-10
6.038424181e-10
-4.639866045e-10
-6.996447098e-10
8.048492087e-10
9.531904344e-10
-1.011843294e-09
-1.488473043e-09
1.854038646e-09
2.519473013e-09
-2.581778962e-09
-4.381994178e-09
5.114532786e-09
7.676949416e-09
-5.023549052e-09
-1.044222851e-08
6.338050746e-09
1.28664284e-08
-6.289570528e-09
-1.770360466e-08
9.357188117e-09
2.458559682e-08
-2.131377805e-09
-3.182759434e-08
1.2891265e-08
3.844412874e-08
-1.192700666e-09
-4.213802652e-08
1.175948776e-08
3.516167069e-08
-8.678880629e-10
-1.804621385e-08
2.327630966e-09
7.402112546e-09
-1.766349513e-10
4.765370518e-10
1.82190445e-09
-3.763772568e-09
-8.154733339e-12
-9.295821279e-10
1.393491604e-09
8.031597152e-11
-3.62269548e-11
-2.263894316e-09
-9.07184986e-11
3.176562458e-09
3.761184818e-10
-3.787942891e-09
-3.101308547e-10
3.876677849e-09
4.764159142e-10
-3.367009117e-09
-2.860157245e-10
2.455879575e-09
2.785062834e-10
-1.533543095e-09
-1.127597963e-10
8.663997588e-10
1.023535609e-10
-4.736125728e-10
-5.67545866e-11
2.616608325e-10
3.806916012e-11
-1.492103062e-10
-4.236678119e-11
8.737785358e-11
2.003171613e-11
-5.187864091e-11
-3.370725023e-11
4.430941391e-11
1.879455585e-11
-8.204100539e-11
-1.58856001e-10
2.308252472e-10
1.201515375e-10
-6.073187607e-10
-9.105002521e-10
1.421325405e-09
1.00428284e-09
-3.172362384e-09
-4.25638401e-09
6.673918655e-09
6.795678913e-09
-1.104961829e-08
-6.192403707e-09
1.203643274e-08
1.277088661e-08
-8.300505853e-09
-2.481713785e-09
4.043346343e-09
4.769332987e-09
-1.513810917e-09
-5.439506007e-10
4.099361225e-10
3.805554828e-10
2.694658697e-11
-9.647679998e-10
-1.845536132e-10
1.670881681e-09
3.562866513e-10
-7.986335647e-10
-4.423805886e-10
1.418833428e-09
4.835811346e-10
-6.177822397e-10
-5.396583082e-10
1.041433952e-09
6.355621873e-10
-7.503415316e-10
-7.829402498e-10
1.258996144e-09
9.954663386e-10
-8.550255477e-10
-1.294324451e-09
1.630433853e-09
1.544462539e-09
-1.05052136e-09
-1.840723964e-09
2.136034569e-09
2.276021677e-09
-1.714066719e-09
-3.024578023e-09
3.813437853e-09
4.362804665e-09
-3.957134242e-09
-6.639421849e-09
7.880912239e-09
1.006751539e-08
-9.136644711e-09
-1.442068314e-08
1.319956659e-08
1.889233308e-08
-9.625519651e-09
-1.901783099e-08
1.214672687e-08
2.060008099e-08
-1.56949309e-08
-2.808411161e-08
2.09240772e-08
4.037208024e-08
-2.287844788e-08
-5.205689117e-08
2.183256264e-08
5.16832019e-08
-1.165358486e-08
-3.259764832e-08
5.086957457e-09
1.431838443e-08
-2.410026441e-09
-7.969045305e-09
1.942475448e-09
5.431330864e-09
-5.524300834e-10
1.733004787e-10
1.184624312e-09
-2.768065682e-09
3.829596147e-10
5.576750882e-12
7.800454726e-11
-8.439741737e-10
-6.457717601e-10
1.558398846e-09
3.4140116e-10
-2.116052355e-09
-7.01273038e-10
2.074830641e-09
3.257022017e-10
-1.457036701e-09
2.16149097e-11
8.015065269e-10
7.473089846e-11
-4.622745868e-10
3.328787813e-11
2.515048999e-10
2.140579505e-11
-1.411901537e-10
1.404348785e-11
8.676218373e-11
9.779022438e-12
-5.841848472e-11
-4.050887081e-12
4.170490962e-11
1.142249371e-11
-2.804083263e-11
-1.072299273e-11
1.761427916e-11
1.102765559e-11
-1.621726698e-11
-5.562179446e-11
2.928761376e-11
2.332045455e-11
-7.446789445e-11
-5.906609926e-10
1.999888579e-10
2.273699234e-10
-5.674963065e-10
-5.745759572e-09
1.902302395e-09
2.067078996e-09
-6.57127774e-09
-1.822615696e-08
1.383761181e-08
1.669711722e-08
-1.547754303e-08
-8.201662514e-09
9.28903914e-09
1.223024468e-08
-2.73453463e-09
-1.514462895e-10
8.441753501e-11
6.791311103e-11
8.873309475e-12
-2.587957027e-09
-3.851975603e-10
3.69123971e-09
7.917281332e-10
-2.266872046e-09
-1.007511296e-09
3.32322685e-09
1.086537955e-09
-1.616366071e-09
-1.17443033e-09