/*--------------------------------*- C++ -*----------------------------------*\
| =========                 |                                                 |
| \\      /  F ield         | OpenFOAM: The Open Source CFD Toolbox           |
|  \\    /   O peration     | Version:  2.1.x                                 |
|   \\  /    A nd           | Web:      www.OpenFOAM.org                      |
|    \\/     M anipulation  |                                                 |
\*---------------------------------------------------------------------------*/
FoamFile
{
    version     2.0;
    format      ascii;
    class       volVectorField;
    location    "0.4";
    object      Uf;
}
// * * * * * * * * * * * * * * * * * * * * * * * * * * * * * * * * * * * * * //

dimensions      [0 1 -1 0 0 0 0];

internalField   nonuniform List<vector> 
2828
(
(-0.6829118557 0 -0.1447631596)
(-0.1260065443 0 0.005026197028)
(-0.1238771416 0 0.005672809231)
(-0.1640483282 0 0.02576800491)
(-0.1958390717 0 0.0540604432)
(-0.6224577313 0 -0.3185103048)
(-1.029005057 0 -0.4827401423)
(-1.306766609 0 -0.5181194884)
(-1.158425743 0 -0.3907659987)
(-0.973995616 0 -0.2206926174)
(-0.1357713634 0 0.001989429265)
(-0.1603841593 0 0.01157172909)
(-0.2139678924 0 0.05085280654)
(-0.2306096685 0 0.07393898284)
(-0.2151544099 0 0.09259900783)
(-0.3354759547 0 0.1360924391)
(-0.4229999702 0 0.1964912616)
(-0.2071080124 0 -0.1664502891)
(-0.190416564 0 -0.1396399532)
(-0.3670959443 0 -0.2113618702)
(-1.20448056 0 -0.6104998186)
(-1.557583482 0 -0.6604628704)
(-1.434959264 0 -0.5663393802)
(-1.373074168 0 -0.3291389709)
(-0.1612356441 0 -0.00709818292)
(-0.1956339059 0 0.03403428316)
(-0.2429182457 0 0.06848213225)
(-0.2820089074 0 0.09908885427)
(-0.2553053296 0 0.1184496756)
(-0.3794549754 0 0.1623214931)
(-0.4694948572 0 0.2356406553)
(-0.4627096877 0 0.2816164523)
(-0.4119147638 0 0.2953188738)
(-0.3251366375 0 -0.2653792478)
(-0.352889774 0 -0.2672289709)
(-0.4338933604 0 -0.2954811)
(-0.4169606496 0 -0.2641980288)
(-0.2990431642 0 -0.1882821533)
(-0.7794972107 0 -0.4547056568)
(-1.676189758 0 -0.8010319331)
(-1.816188804 0 -0.4575986108)
(-0.2228242416 0 -0.01735622322)
(-0.2277971053 0 0.04808639035)
(-0.2904911365 0 0.09215590865)
(-0.3796899791 0 0.1514478089)
(-0.3867630355 0 0.1914292707)
(-0.437188476 0 0.2193201998)
(-0.5028163517 0 0.2860299499)
(-0.4745317342 0 0.3338681313)
(-0.400501675 0 0.3325132285)
(-0.3476176704 0 0.3088655326)
(-0.3262151878 0 0.2893055975)
(-0.466516179 0 -0.3816926838)
(-0.4443590993 0 -0.3475887106)
(-0.5385356378 0 -0.3855786264)
(-0.623910821 0 -0.3991392405)
(-0.6131546021 0 -0.3625214137)
(-0.4803071025 0 -0.2842808023)
(-0.5140962513 0 -0.354916911)
(-1.560182432 0 -1.008208912)
(-1.833505177 0 -0.6246071299)
(-0.3395770834 0 -0.02760316756)
(-0.2695224323 0 0.0614489117)
(-0.3612933926 0 0.1346391992)
(-0.4383923478 0 0.1977110591)
(-0.460283588 0 0.2420406134)
(-0.4616711196 0 0.2679083668)
(-0.4735439417 0 0.3133474483)
(-0.4528920879 0 0.3795869954)
(-0.3631044927 0 0.3555503541)
(-0.3007810868 0 0.308059666)
(-0.2777908422 0 0.2707421138)
(-0.2523237445 0 0.2279916707)
(-0.5539037846 0 -0.4737447198)
(-0.5084396259 0 -0.4034253787)
(-0.5164471281 0 -0.3893532857)
(-0.607839733 0 -0.4157230338)
(-0.6846676378 0 -0.4043771917)
(-0.6816250875 0 -0.3597371769)
(-0.5794414125 0 -0.3087689574)
(-0.3658430704 0 -0.2326367085)
(-0.2590615184 0 -0.0747373096)
(-0.2785919545 0 -0.05676228656)
(-0.3753641069 0 -0.06007762249)
(-0.2995565368 0 0.07164473402)
(-0.4098720461 0 0.1589068678)
(-0.4399178143 0 0.2123383713)
(-0.4545342916 0 0.2569698309)
(-0.4435021467 0 0.2826203629)
(-0.4083150772 0 0.3065683025)
(-0.3805831356 0 0.3768883614)
(-0.3030370079 0 0.3422064907)
(-0.2539557536 0 0.2880674997)
(-0.2336885865 0 0.2610394046)
(-0.2173717402 0 0.248087349)
(-0.2112399497 0 0.2626110109)
(-0.5424805122 0 -0.5418676878)
(-0.5496445222 0 -0.4845926081)
(-0.5268093726 0 -0.4146517409)
(-0.5115688597 0 -0.3809602539)
(-0.5724134496 0 -0.3834350892)
(-0.6438306994 0 -0.3519431187)
(-0.6647976112 0 -0.3030058895)
(-0.6119430128 0 -0.2734624534)
(-0.4736627752 0 -0.2797004069)
(-0.3086114627 0 -0.1655774307)
(-0.2905044788 0 -0.0693741081)
(-0.4316854114 0 -0.07603626878)
(-0.3453364704 0 0.0688411628)
(-0.4194076394 0 0.1504371201)
(-0.4215320529 0 0.2078063032)
(-0.4170995249 0 0.2559578514)
(-0.3995349392 0 0.2773515413)
(-0.3447188318 0 0.273107061)
(-0.2781584391 0 0.2812949536)
(-0.2399781683 0 0.2696118453)
(-0.2290152346 0 0.2632872805)
(-0.2273716885 0 0.2740542704)
(-0.2275771488 0 0.2923657342)
(-0.2267812007 0 0.3112275542)
(-0.4724545534 0 -0.5823426753)
(-0.5307482381 0 -0.5884321887)
(-0.5996681318 0 -0.5813232863)
(-0.5957939151 0 -0.4937779251)
(-0.5033037157 0 -0.38114882)
(-0.4945377205 0 -0.3419300835)
(-0.5676720778 0 -0.3017768913)
(-0.6168342909 0 -0.2509596201)
(-0.6034763652 0 -0.2290566642)
(-0.5354916403 0 -0.2631651389)
(-0.5059848144 0 -0.3936835664)
(-0.3182169294 0 -0.08495628452)
(-0.4696303174 0 -0.09613875472)
(-0.403252861 0 0.074131117)
(-0.4251639286 0 0.1467109559)
(-0.4052123402 0 0.1976406757)
(-0.3787732361 0 0.2480210931)
(-0.3511574272 0 0.2648822149)
(-0.2983905702 0 0.2456262379)
(-0.2386625141 0 0.2222823137)
(-0.2226330332 0 0.2374106185)
(-0.2237945221 0 0.2630605433)
(-0.2640301986 0 0.3203886787)
(-0.2248961582 0 0.3065498216)
(-0.2224541968 0 0.3222442467)
(-0.2178820833 0 0.3338598009)
(-0.4155232027 0 -0.5854515063)
(-0.5357743629 0 -0.6878223418)
(-0.6663545698 0 -0.7490657024)
(-0.7232652549 0 -0.6782307346)
(-0.6069267607 0 -0.4819533115)
(-0.4422462301 0 -0.3343832684)
(-0.5002506008 0 -0.2785897874)
(-0.5695352874 0 -0.2222419663)
(-0.5712727535 0 -0.2058727386)
(-0.5420164691 0 -0.2333833934)
(-0.6530749393 0 -0.5772092172)
(-0.3346097475 0 -0.1011256366)
(-0.4892779763 0 -0.1275612628)
(-0.4287311911 0 0.09275851949)
(-0.4157418171 0 0.1494264977)
(-0.3860191772 0 0.1891368733)
(-0.3385559516 0 0.2301990079)
(-0.3022342164 0 0.2467971873)
(-0.2607801056 0 0.2331819166)
(-0.2311843818 0 0.2352027335)
(-0.2257961919 0 0.2596590112)
(-0.2234164009 0 0.2826059694)
(-1.400105257 0 1.371292151)
(-0.7642609317 0 0.9734429278)
(-0.2101475878 0 0.3272534907)
(-0.1987822542 0 0.3279826832)
(-0.1917559173 0 0.3318107274)
(-0.2665237152 0 -0.4024286319)
(-0.346624341 0 -0.5635349132)
(-0.5075431293 0 -0.7734697234)
(-0.6804317532 0 -0.9327380441)
(-0.8248999577 0 -0.9529401194)
(-0.8354173447 0 -0.7611851954)
(-0.4899538067 0 -0.4059136851)
(-0.4441837444 0 -0.2839200909)
(-0.5280612051 0 -0.2150919341)
(-0.5224920557 0 -0.2096436836)
(-0.4853145245 0 -0.2342649761)
(-0.6373628527 0 -0.624667508)
(-0.3666373291 0 -0.1862734701)
(-0.4938636893 0 -0.199256593)
(-0.4585191594 0 0.1139903529)
(-0.4024395994 0 0.1546200369)
(-0.3545255052 0 0.179117868)
(-0.290774396 0 0.1995294304)
(-0.2556306445 0 0.2174323139)
(-0.2442882113 0 0.2337297055)
(-0.249077799 0 0.2765177464)
(-0.2492556355 0 0.3133660176)
(-0.2381021082 0 0.3340920522)
(-1.661189561 0 1.950585284)
(-1.38082878 0 2.090009253)
(-0.7051185586 0 1.200367239)
(-0.1801014778 0 0.3290391608)
(-0.1694731123 0 0.3270927085)
(-0.1537337369 0 -0.1837530529)
(-0.2313953888 0 -0.4353434778)
(-0.4105316533 0 -0.7516243454)
(-0.6223958904 0 -1.084421199)
(-0.8077631582 0 -1.264357897)
(-0.9260242999 0 -1.172512077)
(-0.6787151884 0 -0.6263661558)
(-0.393858741 0 -0.3226818487)
(-0.4881900991 0 -0.2272635693)
(-0.4658150157 0 -0.2314347236)
(-0.3876735819 0 -0.2537956902)
(-0.4120316565 0 -0.4920284136)
(-0.6571207849 0 -0.2238829949)
(-0.517459946 0 -0.132974138)
(-0.5064948244 0 0.1363963034)
(-0.4190016872 0 0.1753309883)
(-0.3226200548 0 0.1742336629)
(-0.2474144491 0 0.1679733105)
(-0.2438889718 0 0.2073315486)
(-0.2880655395 0 0.3047961687)
(-0.3063352869 0 0.3871677814)
(-0.2958117532 0 0.4255898088)
(-0.2666757578 0 0.4237871793)
(-0.2027581006 0 1.093557271)
(-0.186986328 0 0.4232148567)
(-0.1739798405 0 0.343151838)
(-0.1594325624 0 0.3328357133)
(-0.1478236672 0 0.3281817636)
(-0.1079632224 0 -0.1611959198)
(-0.0755668711 0 -0.1732035699)
(-0.09648094234 0 -0.2063592618)
(-0.1319312625 0 -0.2716563711)
(-0.1990640558 0 -0.374041248)
(-0.283744375 0 -0.5572050963)
(-0.3233003031 0 -0.6561366138)
(-0.3650048497 0 -0.4237007002)
(-0.4459170213 0 -0.2579249546)
(-0.420266021 0 -0.2539485656)
(-0.3244166514 0 -0.263973649)
(-0.2468005715 0 -0.2714336775)
(-0.4007290584 0 -0.3036398562)
(-0.4754564117 0 -0.267892492)
(-0.5465389417 0 0.1700661769)
(-0.4741316925 0 0.2253688342)
(-0.3035451188 0 0.1861179953)
(-0.2562379346 0 0.1804825757)
(-0.3488537388 0 0.3325678844)
(-0.3929223513 0 0.5050241615)
(-0.3463224771 0 0.5627927546)
(-0.3183539683 0 0.564779676)
(-0.2805936304 0 0.525621942)
(-0.2352607081 0 0.472072383)
(-0.192024673 0 0.4139802314)
(-0.1599688272 0 0.3742310663)
(-0.1380268377 0 0.3524198453)
(-0.1193845379 0 0.3363544638)
(-0.07855659478 0 0.3284097335)
(-0.07187821511 0 -0.2139850804)
(-0.04952378361 0 -0.202252385)
(-0.05879325702 0 -0.2236353044)
(-0.08093465254 0 -0.2842850008)
(-0.1153371667 0 -0.3635327874)
(-0.1733757845 0 -0.4510604035)
(-0.3017100025 0 -0.6229310109)
(-0.359818698 0 -0.6179405499)
(-0.392803089 0 -0.3057915123)
(-0.4079790056 0 -0.271209135)
(-0.3133737564 0 -0.2691416576)
(-0.4046990392 0 -0.4454179788)
(-2.344711738 0 -1.020835606)
(-0.5559371003 0 -0.294674146)
(-0.1886904264 0 0.1749780131)
(-0.3203506856 0 0.3250674354)
(-0.2740198161 0 0.1572620756)
(-0.4717870128 0 0.3397802741)
(-0.6214999364 0 0.8156491882)
(-0.3649928691 0 0.6785929913)
(-0.38131534 0 0.7733970844)
(-0.3737791215 0 0.7941606666)
(-0.3010711769 0 0.674403997)
(-0.2194621625 0 0.5334071053)
(-0.1723925047 0 0.4763137008)
(-0.1253583665 0 0.4180467293)
(-0.09459216839 0 0.3782687034)
(-0.07940141738 0 0.3497151994)
(-0.04677237536 0 0.3213162769)
(-0.1267921411 0 -0.2273858908)
(-0.0596221366 0 -0.253410778)
(-0.0139591687 0 -0.3084566944)
(-0.02671451814 0 -0.367063037)
(-0.04161338678 0 -0.4537164102)
(-0.05885008707 0 -0.5495179415)
(-0.08196572317 0 -0.6589787938)
(-0.1192474706 0 -0.7494046673)
(-0.2184830531 0 -0.5812004078)
(-0.2925551937 0 -0.3517090605)
(-0.4639443578 0 -0.3320047127)
(-0.4827684846 0 -0.5235911118)
(-1.621607376 0 -3.506534119)
(-3.14059966 0 -2.405769408)
(-0.6069083058 0 0.3251483125)
(-0.4079543154 0 -0.002132255398)
(-0.2714310966 0 0.4275082657)
(-0.4756061867 0 -0.4644799179)
(-0.7753475572 0 1.454098739)
(-0.6027681055 0 1.169809718)
(-0.3073249528 0 0.7838413212)
(-0.3316793862 0 0.8487567768)
(-0.3364152606 0 0.8845093961)
(-0.2915069415 0 0.806317335)
(-0.1672492581 0 0.6028211841)
(-0.1039683785 0 0.5344380457)
(-0.07805381352 0 0.4228719975)
(-0.06069573116 0 0.3339296527)
(-0.05271197835 0 0.2889165242)
(-0.04900636427 0 0.2639748497)
(-0.118750798 0 -0.2223045368)
(-0.06608857267 0 -0.2330304333)
(-0.01086726146 0 -0.2829152467)
(0.01976278266 0 -0.3672168553)
(0.0424234794 0 -0.4559821662)
(0.06703254921 0 -0.5388293601)
(0.09460009307 0 -0.6149951375)
(0.1302997037 0 -0.6347395024)
(0.1128056839 0 -0.3301347016)
(-0.1669448537 0 -0.3373690972)
(-0.524827018 0 -0.4508197765)
(-0.7895851709 0 -0.5271780388)
(-0.4264998227 0 0.1199196601)
(0.266982967 0 -0.3332549329)
(0.3356454903 0 -0.1933769457)
(0.1851001527 0 0.3347458696)
(0.007867883291 0 0.4401025285)
(0.0188880707 0 0.3694349708)
(-0.1957056055 0 0.6647169639)
(0.9617302612 0 1.086680792)
(1.061883959 0 2.292256024)
(0.5107770249 0 1.711573267)
(0.4072411801 0 1.592742758)
(0.4188657624 0 1.594025445)
(0.4740898535 0 1.580112726)
(0.17996398 0 0.7000868961)
(0.02486514188 0 0.2659449551)
(-0.001742170908 0 0.2228111682)
(-0.02030251412 0 0.1995180325)
(-0.03045321234 0 0.1812908609)
(-0.1112936814 0 -0.2170582937)
(-0.03536658251 0 -0.2240643422)
(0.02229383972 0 -0.2244689084)
(0.04495510701 0 -0.2438627556)
(0.06104481838 0 -0.2795720058)
(0.08689443066 0 -0.329495154)
(0.1182699039 0 -0.3645512991)
(0.1566052879 0 -0.3610174086)
(0.1347473684 0 -0.2714177867)
(-0.09037539419 0 -0.3412390676)
(-0.5593234553 0 -0.568476629)
(-1.068378153 0 -0.7860804777)
(0.1933470834 0 -0.2020870605)
(0.2962759149 0 -0.2025596195)
(1.202176428 0 -0.413950504)
(1.691725918 0 0.3629839888)
(1.425285062 0 0.6350754401)
(1.121696021 0 0.8833436213)
(0.6929165771 0 0.8467522504)
(0.449958801 0 0.8784606692)
(2.048077381 0 2.287351636)
(1.420190172 0 2.163934513)
(1.046309685 0 1.964908339)
(0.9456627967 0 2.01339559)
(0.9349936278 0 2.129491566)
(0.7065110455 0 1.677394374)
(0.1606278809 0 0.494647154)
(0.0510241734 0 0.2582931197)
(0.02765088003 0 0.2332222551)
(-0.009328884142 0 0.2333832755)
(-0.0999387268 0 -0.2610850037)
(-0.07241364533 0 -0.2649024583)
(-0.04844673224 0 -0.2588084319)
(-0.01430086452 0 -0.2453073882)
(0.05796736648 0 -0.3417288601)
(0.1130843748 0 -0.4856842452)
(0.1566402128 0 -0.6900087162)
(0.1918010356 0 -0.8633880424)
(0.2388483946 0 -1.056597138)
(0.3431207687 0 -1.534641005)
(0.5738684069 0 -2.208982691)
(1.178654407 0 -1.691786462)
(1.411023655 0 -1.701960599)
(1.298079511 0 -1.351023193)
(1.277161087 0 -0.3023580712)
(1.411859951 0 0.2972497919)
(1.254856498 0 0.4282834327)
(1.010599249 0 0.6898680991)
(0.8355609562 0 0.7431502146)
(0.6703641371 0 0.7682676781)
(1.540936315 0 1.457013305)
(1.49990149 0 1.710546011)
(1.381491329 0 1.898101032)
(1.379490145 0 2.197036381)
(1.254223105 0 2.562725566)
(1.276562661 0 3.886703273)
(1.446569946 0 4.783200388)
(1.08623355 0 3.776635762)
(0.2859251191 0 1.055678413)
(0.1094973839 0 0.498233546)
(-0.04294527291 0 -0.2917448344)
(0.003161896824 0 -0.3505750737)
(0.04789976484 0 -0.4610341654)
(0.06411986214 0 -0.5511576185)
(0.09579338329 0 -0.5993041649)
(0.1373056468 0 -0.5970026805)
(0.1870608 0 -0.6683800613)
(0.2887519773 0 -0.8944771273)
(0.4478402119 0 -1.179861422)
(0.7000391238 0 -1.455474814)
(1.068571233 0 -1.468809235)
(1.533992153 0 -1.493583582)
(1.820828073 0 -1.762117962)
(1.861950788 0 -1.533516654)
(0.7016730916 0 -0.1687717862)
(1.394946083 0 0.2890252842)
(1.251803661 0 0.3814144592)
(1.037390156 0 0.6058420052)
(0.9289653193 0 0.743572424)
(0.851867033 0 0.8026559716)
(1.137109385 0 1.083278573)
(1.440041613 0 1.497694044)
(1.553941296 0 1.855080434)
(1.456597755 0 2.005291087)
(1.72071809 0 2.468286586)
(2.1226462 0 3.832158403)
(1.608775568 0 3.599540169)
(0.5523386633 0 1.512429772)
(0.2402221649 0 0.7007866183)
(0.1278761031 0 0.3940805377)
(0.01334090493 0 -0.4827529769)
(0.07409671783 0 -0.5909993454)
(0.04686322163 0 -0.6512939275)
(-0.07469600883 0 -0.6357401985)
(-0.1857511931 0 -0.7113957201)
(-0.2677780894 0 -0.8733464881)
(-0.004278630766 0 -0.9370450987)
(0.5143661443 0 -0.8762597356)
(0.7321428721 0 -0.9488957295)
(0.9400068552 0 -0.8685485425)
(1.047949473 0 -0.7885138821)
(1.61970174 0 -1.29270566)
(1.959343305 0 -1.375332032)
(0.5463310593 0 -0.1210351979)
(1.521114556 0 0.313230757)
(1.3742818 0 0.4096477208)
(1.142936325 0 0.6207895402)
(1.073800756 0 0.8149966888)
(1.041198319 0 0.9057058418)
(1.038375667 0 0.979595719)
(1.17118995 0 1.209800591)
(1.196930455 0 1.378183844)
(0.9747607321 0 1.274669544)
(1.383970466 0 1.815320737)
(1.266498426 0 2.051762377)
(0.4221401758 0 0.9219770833)
(0.2195321734 0 0.5331507864)
(0.1534474473 0 0.3610755837)
(0.1323738583 0 0.3181812209)
(0.2165168014 0 -0.7697057545)
(0.2523035727 0 -0.8584119703)
(0.2973701811 0 -0.9768268388)
(0.4049478793 0 -1.195626151)
(0.5791091326 0 -1.352420145)
(0.802055726 0 -1.381918521)
(0.9825067804 0 -1.564503468)
(1.466803973 0 -2.384422003)
(2.229927008 0 -3.208689235)
(2.187317863 0 -1.665079278)
(0.4488855581 0 -0.2947252501)
(0.6811841725 0 -0.3946009932)
(1.233782858 0 -0.7305004419)
(0.5292485323 0 -0.1259447479)
(1.616325008 0 0.3308615164)
(1.439139294 0 0.44904992)
(1.206125015 0 0.6681219484)
(1.177585416 0 0.8756044329)
(1.132301923 0 0.9314502779)
(0.9294438866 0 0.815303009)
(0.6493037157 0 0.6426285817)
(0.4259743701 0 0.4900449696)
(0.2602134207 0 0.3256347057)
(0.252554026 0 0.3399659878)
(0.2181360103 0 0.3342713255)
(0.1911864939 0 0.3268978494)
(0.1740982099 0 0.3245974902)
(0.1641099966 0 0.3280160419)
(0.1571280377 0 0.3339596517)
(0.3283493731 0 -0.8320538673)
(0.3591274167 0 -0.8424957889)
(0.4328012682 0 -0.8826363997)
(0.5507908743 0 -0.9360735772)
(0.6943944593 0 -1.021454693)
(0.8552656209 0 -1.190240578)
(1.253517187 0 -1.414549357)
(2.271232214 0 -1.703527256)
(2.649261072 0 -1.769935806)
(1.472127014 0 -0.3411922438)
(0.3731493628 0 -0.2675670025)
(0.3700836983 0 -0.2029054638)
(0.440550725 0 -0.1953018134)
(0.5216702877 0 -0.1340767092)
(1.550407007 0 0.3087103627)
(1.296802333 0 0.4387846217)
(1.132483972 0 0.6572764343)
(1.151463526 0 0.8235439018)
(1.062814911 0 0.8157275296)
(0.7284441604 0 0.5738704858)
(0.3415644321 0 0.3204937085)
(0.2727373893 0 0.3297367388)
(0.2531071411 0 0.3408920385)
(0.2441914484 0 0.342782902)
(0.2307186766 0 0.3390173724)
(0.2124027799 0 0.3332891894)
(0.1963611381 0 0.3321719448)
(0.1874381795 0 0.3413476797)
(0.477457082 0 -0.8233265615)
(0.5328164646 0 -0.8006741476)
(0.6035869167 0 -0.8119671865)
(0.6863526203 0 -0.8600615148)
(0.9088178371 0 -0.9441240203)
(1.461001781 0 -1.110092683)
(1.876968783 0 -1.244452571)
(2.112455433 0 -1.286022391)
(0.9543951359 0 -0.4935290937)
(0.3562582588 0 -0.2785857892)
(0.3614916082 0 -0.2424149601)
(0.3998005151 0 -0.182524178)
(0.5810686357 0 -0.1302222865)
(1.232806729 0 0.2132228953)
(0.9698586065 0 0.3077608605)
(0.9604877076 0 0.4965829517)
(0.9663808605 0 0.6126663779)
(0.8017312363 0 0.5394653171)
(0.4816388904 0 0.3259035203)
(0.3648107549 0 0.3264792174)
(0.2875417541 0 0.353893792)
(0.2567316074 0 0.3737642268)
(0.252795907 0 0.3861481628)
(0.2502420238 0 0.3932714166)
(0.2425021395 0 0.3957365611)
(0.2316540345 0 0.394652764)
(0.2210642667 0 0.3958257918)
(0.6193621536 0 -0.8644418629)
(0.6885393917 0 -0.8496899661)
(0.7014853079 0 -0.8117534642)
(0.7654306982 0 -0.811345631)
(1.164553958 0 -0.9471217597)
(1.55324465 0 -1.063725115)
(1.694059743 0 -1.065407388)
(1.816652766 0 -1.059478204)
(1.049728392 0 -0.5086864612)
(0.3782366324 0 -0.2901595028)
(0.4466941479 0 -0.2914800738)
(0.4968971035 0 -0.2424666628)
(0.6822639756 0 -0.1236305399)
(0.9166125189 0 0.1053899821)
(0.8699797585 0 0.1770312703)
(0.7988635023 0 0.2753925228)
(0.678890199 0 0.3215150548)
(0.5614487312 0 0.2953095672)
(0.4966924079 0 0.3114546368)
(0.4022633468 0 0.3415790068)
(0.3019355417 0 0.375641598)
(0.2554609713 0 0.3935706417)
(0.2491162639 0 0.4057083186)
(0.2540722854 0 0.4222258576)
(0.2597072217 0 0.4407066309)
(0.2625019725 0 0.4567435381)
(0.5910951373 0 -0.7616300139)
(0.6859707187 0 -0.7606481247)
(0.8997917334 0 -0.8546228641)
(1.340684565 0 -0.9934877888)
(1.748110495 0 -1.141154874)
(1.75025504 0 -1.063869955)
(1.591042874 0 -0.9051896084)
(0.6720091835 0 -0.5139043964)
(0.4473701253 0 -0.6238270095)
(0.5414196023 0 -0.7337627739)
(0.699062081 0 -0.6407217837)
(0.8826816076 0 -0.2189808783)
(0.9201240316 0 0.07675383496)
(0.9499506596 0 0.1539917886)
(0.7552065503 0 0.1934839289)
(0.5956300412 0 0.2390355784)
(0.5788287131 0 0.2910007101)
(0.534961791 0 0.3232511699)
(0.4322559345 0 0.3506944534)
(0.3394731025 0 0.3948720448)
(0.2891541896 0 0.4145028726)
(0.2642587691 0 0.4190980088)
(0.2610151047 0 0.4343358965)
(0.271686355 0 0.4642761068)
(0.2830520584 0 0.4989697276)
(-1.072662562 0 -0.1124425695)
(-1.103240401 0 0.6176220905)
(0.7225303245 0 -0.6553125869)
(1.161021054 0 -0.869069347)
(1.728329096 0 -1.105080139)
(1.757648244 0 -1.050439636)
(1.289480776 0 -0.7945319449)
(0.5640601312 0 -0.6892264513)
(0.5347532117 0 -0.7289549815)
(0.5870355743 0 -0.6765059201)
(0.6885598331 0 -0.5117178501)
(0.8156425315 0 -0.2148282678)
(1.004012839 0 0.04185442442)
(0.9818327926 0 0.1379030261)
(0.6901243925 0 0.1283000017)
(0.5801449352 0 0.2379983114)
(0.5820016526 0 0.2986055629)
(0.5308717196 0 0.3245225688)
(0.434848905 0 0.3485095066)
(0.3748591247 0 0.3908509198)
(0.3341895154 0 0.413821046)
(0.3035197892 0 0.4261775816)
(0.2873129238 0 0.4396442297)
(0.2890696565 0 0.4773119396)
(0.05064415314 0 0.4205352951)
(0.484625911 0 -0.4835591803)
(0.8941735322 0 -0.6663145194)
(1.345346445 0 -0.8744910432)
(1.426681497 0 -0.8670946163)
(0.9468007412 0 -0.7013741317)
(0.6334226669 0 -0.7514615234)
(0.6198870036 0 -0.7561593841)
(0.637405406 0 -0.6572150835)
(0.6934018411 0 -0.4891318156)
(0.8041819298 0 -0.2615975292)
(1.006212565 0 -0.03550344825)
(0.8450810945 0 0.06213138878)
(0.4530770043 0 -0.1386615433)
(0.6533151814 0 0.2694842144)
(0.5621793046 0 0.3021459175)
(0.49892659 0 0.3480806309)
(0.4554171572 0 0.3715894379)
(0.4169385935 0 0.3963728448)
(0.3673977177 0 0.4019757899)
(1.676007816 0 1.777254015)
(1.396204927 0 2.062874097)
(1.386717821 0 -1.353724843)
(0.7310444932 0 -0.589116577)
(1.025952434 0 -0.7264820166)
(0.9753945681 0 -0.6452943071)
(0.7955254024 0 -0.6098813141)
(0.6894743936 0 -0.6530027602)
(0.6150769447 0 -0.6467636496)
(0.6125258054 0 -0.5852466817)
(0.633206085 0 -0.4664754381)
(0.6690693637 0 -0.3031701746)
(0.7463562629 0 -0.1174680997)
(0.4955684836 0 -0.06880062549)
(0.2940451264 0 0.04789805749)
(0.7553992236 0 0.2700151905)
(0.7375725342 0 0.3368059921)
(1.051321457 0 0.8021847069)
(1.013304636 0 0.9215601149)
(0.7669058906 0 0.7486659151)
(0.482760487 0 0.486840257)
(2.297621631 0 1.693920403)
(0.8777943863 0 -0.680973974)
(0.7868933444 0 -0.5859735617)
(0.8125464824 0 -0.562241549)
(0.8386548236 0 -0.5159892288)
(0.6498177085 0 -0.4130809116)
(0.4298086096 0 -0.3058366344)
(0.4712773761 0 -0.265490195)
(0.4734892223 0 -0.1923472096)
(0.4154876847 0 -0.1098503482)
(0.3180478319 0 -0.05913016029)
(0.2638595559 0 0.05767730658)
(0.6911795679 0 0.2149597636)
(0.6913321826 0 0.3077728719)
(1.346510148 0 0.9236419628)
(1.145571073 0 0.924444719)
(0.8855502781 0 0.7878837532)
(0.5757494316 0 0.5400365911)
(0.7275251423 0 -0.5462235425)
(0.8339782889 0 -0.5130471219)
(0.8971297146 0 -0.4538811373)
(0.8162230554 0 -0.347455672)
(0.2989995755 0 -0.1128031107)
(0.3574862014 0 -0.1040350339)
(0.4025863166 0 -0.09594898613)
(0.4175352954 0 -0.003745660065)
(0.3140651452 0 -0.01539313184)
(0.2469154638 0 0.0527353663)
(0.5382816683 0 0.1560505937)
(0.6444121266 0 0.250964322)
(1.372960316 0 0.8683135471)
(1.163344292 0 0.8541186895)
(0.5502051574 0 -0.2313307916)
(0.2727217058 0 -0.09784454016)
(0.3232076114 0 -0.08999958739)
(0.3752829836 0 -0.08480281498)
(0.4946065056 0 0.0628282495)
(0.3017678681 0 0.02083667571)
(0.2390614991 0 0.04552646274)
(0.4095397713 0 0.1165594741)
(0.51641338 0 0.18471924)
(-1.122874148 0 -0.4847982808)
(-1.217808351 0 -0.4811758005)
(-0.8226984576 0 -0.2778650374)
(-1.034382423 0 -0.3358635513)
(-1.017442807 0 -0.2731443427)
(-0.9258877243 0 -0.2394184963)
(-0.7958707509 0 -0.1741120932)
(-0.1850019936 0 -0.02407474428)
(-0.1654537341 0 -0.02787533082)
(-0.1280860897 0 0.004077682925)
(-0.11971642 0 0.02722063484)
(-0.1154049643 0 0.03198961775)
(-0.1385957837 0 0.006002155416)
(-0.169713721 0 0.02386342144)
(-0.1421632683 0 0.01709421676)
(-0.1937050701 0 0.03679110157)
(-0.2096242383 0 0.05838727057)
(-0.1865239192 0 0.046001743)
(-0.2113974467 0 0.06504250344)
(-0.2098235344 0 0.07759032134)
(-0.2009329929 0 0.07969904114)
(-0.2533849192 0 0.09597211689)
(-0.3196163589 0 0.1256691547)
(-0.1972500049 0 -0.1325014224)
(-0.2674622418 0 -0.1542596861)
(-0.5262216271 0 -0.2761153285)
(-0.9110012587 0 -0.4627065359)
(-0.8918901254 0 -0.4384070846)
(-1.164592373 0 -0.5618786697)
(-1.310542797 0 -0.5891674655)
(-1.144900327 0 -0.5020154526)
(-0.3479767776 0 0.1454584584)
(-0.4087982607 0 0.1805195663)
(-0.393644724 0 0.1710911691)
(-0.4413825853 0 0.211757095)
(-0.4496795832 0 0.2359072788)
(-0.4376704868 0 0.2208064144)
(-0.4483905744 0 0.2570754752)
(-0.4339987676 0 0.2730296617)
(-0.2547337649 0 -0.2094980195)
(-0.2518301004 0 -0.201184396)
(-0.2743742029 0 -0.2064725569)
(-0.1978419188 0 -0.1530194829)
(-0.4077566621 0 0.3145947191)
(-0.3789642433 0 0.3089730471)
(-0.3908427693 0 0.3026583706)
(-0.3631828015 0 0.3081479639)
(-0.4319289446 0 -0.3570218171)
(-0.3967676458 0 -0.3230571363)
(-0.3584175135 0 -0.2922997621)
(-0.387464361 0 -0.3074302453)
(-0.4052966983 0 -0.312137513)
(-0.3138995776 0 -0.2517705785)
(-0.3253024656 0 0.311234588)
(-0.3120792077 0 0.2968867792)
(-0.3376078714 0 0.3015929143)
(-0.30632061 0 0.2792232631)
(-0.2966751399 0 0.258968926)
(-0.5477605517 0 -0.4661827742)
(-0.5231945496 0 -0.4340109249)
(-0.5003642326 0 -0.4173865788)
(-0.2266173941 0 0.2276530345)
(-0.2117581248 0 0.2255511191)
(-0.5570159736 0 -0.5292275163)
(-0.5564483703 0 -0.5056955727)
(-0.5658741097 0 -0.5014815574)
(-0.2214961916 0 0.291183796)
(-0.2222353003 0 0.3013858989)
(-0.5159646321 0 -0.566665594)
(-0.5314040642 0 -0.5546849638)
(-0.5523193775 0 -0.5421382429)
(-0.5474326824 0 -0.512797916)
(-0.2271957811 0 0.3210138215)
(-0.2251670752 0 0.3279508997)
(-0.2259477864 0 0.3187337996)
(-0.223336405 0 0.3319676309)
(-0.4444668847 0 -0.5878212635)
(-0.4840843695 0 -0.6077972487)
(-0.4956838585 0 -0.5819324993)
(-0.2091363157 0 0.3310176227)
(-0.2058075392 0 0.3349266616)
(-0.2148798788 0 0.3359652264)
(-0.3414708307 0 -0.5296864696)
(-0.3831831562 0 -0.5587148903)
(-0.1807107107 0 0.3297686386)
(-0.2111683462 0 -0.293047273)
(-0.2421388939 0 -0.4144907092)
(-0.2976253881 0 -0.4832668962)
(-0.1587805003 0 0.3267932634)
(-0.1543053888 0 0.326498826)
(-0.1655114601 0 0.3270864006)
(-0.1381678383 0 -0.1421255052)
(-0.1143465045 0 -0.1305152226)
(-0.1174145221 0 -0.2069333879)
(-0.1826527864 0 -0.3165892736)
(-0.1355554117 0 0.3317715741)
(-0.1240780643 0 0.3278776935)
(-0.1427036598 0 0.3265047102)
(-0.1127915695 0 0.3272783085)
(-0.1240961982 0 -0.1986245791)
(-0.134306299 0 -0.1726258418)
(-0.03652848419 0 0.3223776191)
(-0.1251441746 0 -0.2227149413)
(-0.1013037781 0 -0.2211748533)
(-0.1094911338 0 -0.2192002902)
(-0.04959133362 0 0.3099034643)
(-0.04605697397 0 0.2995573536)
(-0.1279947555 0 -0.2249860798)
(-0.1091159524 0 -0.2289669793)
(-0.1028449934 0 -0.2334081447)
(-0.04068910606 0 0.1724284642)
(-0.0413504672 0 0.1734378326)
(-0.04747756777 0 0.2542409921)
(-0.108650987 0 -0.2200567342)
(-0.07806317743 0 -0.2281412857)
(-0.09741901083 0 -0.2281641578)
(-0.0115591357 0 0.193590777)
(-0.02629247028 0 0.2001826395)
(-0.03537882024 0 0.1798392408)
(-0.1108662482 0 -0.2308004622)
(-0.07938699245 0 -0.2347883742)
(-0.07211658009 0 -0.22624119)
(0.03554459682 0 0.3466544333)
(-0.006156253505 0 0.3418450649)
(-0.03047485222 0 0.2620098101)
(-0.06486351764 0 -0.2984567461)
(-0.05629455445 0 -0.3131873388)
(-0.08567390569 0 -0.2641218692)
(0.1485197027 0 0.5092855951)
(0.106373393 0 0.4640006179)
(0.0225808519 0 0.4573707786)
(-0.07484682373 0 -0.3034961741)
(-0.03373865907 0 -0.306015444)
(0.1209348551 0 0.3215951509)
(0.1052229777 0 0.3713466417)
(0.1395769239 0 -0.62147001)
(-0.03388668486 0 -0.4370309697)
(0.1447851265 0 0.325901021)
(0.2024632516 0 -0.7408840877)
(0.2818707228 0 -0.819819089)
(0.2881340345 0 -0.8340169623)
(0.2370005492 0 -0.8151419898)
(0.1759448714 0 0.3331698043)
(0.1742805546 0 0.3423516564)
(0.1606043086 0 0.3333373644)
(0.3815121856 0 -0.8359112836)
(0.3959730348 0 -0.8327175739)
(0.3389950581 0 -0.8335219077)
(0.2025158731 0 0.3621047506)
(0.1987832329 0 0.3620301275)
(0.1848295348 0 0.3486691205)
(0.5275960057 0 -0.8445930953)
(0.4606662779 0 -0.839144966)
(0.2408060458 0 0.4294177292)
(0.6287373145 0 -0.8226478953)
(0.6441902795 0 -0.8300938386)
(0.6604262419 0 -0.8651400037)
(0.2739971504 0 0.4830194436)
(0.2737559526 0 0.4857465076)
(0.26241743 0 0.4657710745)
(0.527729996 0 -0.7873698194)
(0.3936398881 0 -0.667967445)
(0.5353296686 0 -0.7459554297)
(0.6167551894 0 -0.7072306267)
(0.2783027501 0 0.4701065039)
(0.2868330529 0 0.4950130633)
(0.2799728658 0 0.4883601763)
(-1.631099963 0 -0.1511168823)
(-1.574381321 0 -0.1358329738)
(0.2993271377 0 0.4747787759)
(0.2922243256 0 0.4927334166)
(-0.0895076423 0 -0.1866686738)
(0.2164579197 0 -0.1545316663)
(1.831864345 0 2.2162416)
(1.141747983 0 1.740438241)
(0.6982185745 0 -0.6070083711)
(-0.636420628 0 1.187785487)
(0.7611649218 0 -0.5947830036)
(0.8784845182 0 -0.664632928)
(0.9595997515 0 -0.6584688836)
(0.5278239185 0 0.5108446253)
(0.4876625525 0 0.479487863)
(0.497787363 0 0.4674715858)
(2.170369709 0 1.559422758)
(2.245680711 0 2.027330596)
(0.8412782397 0 -0.6732469294)
(0.8244666575 0 -0.6562994426)
(0.7724735359 0 -0.6056161097)
(0.8430219926 0 -0.6315972899)
(0.9039523208 0 0.7680636534)
(0.7616625458 0 0.6731245452)
(0.712570292 0 0.6505037783)
(0.7743465325 0 -0.5297093542)
(0.8284828904 0 -0.4883324233)
(0.8481344082 0 -0.4555443936)
(0.8819130662 0 -0.4910056359)
(0.8358579342 0 -0.4132815422)
(0.7869607516 0 -0.3577947918)
(0.8859842378 0 -0.4096296718)
(0.5716418359 0 0.2132006735)
(1.21449768 0 0.6683468126)
(1.419758086 0 0.8112464801)
(1.306757885 0 0.8000351149)
(1.258840225 0 0.8374569192)
(1.257642292 0 0.8618784637)
(1.060870333 0 0.8288007484)
(0.7195558318 0 -0.324534286)
(0.26761057 0 -0.1084609883)
(0.291922007 0 -0.08917051397)
(0.2942561358 0 -0.09125339934)
(0.3110211213 0 -0.08550416102)
(0.330467456 0 -0.08266379694)
(0.3476295551 0 -0.08822794893)
(0.354531289 0 -0.07883863453)
(0.3791434751 0 -0.06667352902)
(0.4111014133 0 -0.07517413356)
(0.5149973885 0 0.06388580046)
(0.3488780483 0 0.03712344721)
(0.3478090978 0 0.009520389721)
(0.2997572355 0 0.03555211479)
(0.2707718053 0 0.04712428274)
(0.2708054828 0 0.04430629538)
(0.243745526 0 0.04814569603)
(0.3466150738 0 0.08436307815)
(0.4563058982 0 0.1452976763)
(-1.445909561 0 -0.5812928872)
(-1.167377506 0 -0.2168318811)
(-0.9378514588 0 -0.2592906456)
(-1.293053038 0 -0.4702810853)
(-1.398824495 0 -0.4150581444)
(-1.20577773 0 -0.3391656359)
(-1.174946515 0 -0.2744222489)
(-0.236466955 0 -0.009807632952)
(-0.2072283981 0 -0.01970758169)
(-0.1460497699 0 -0.002089105536)
(-0.1502791174 0 0.01465233466)
(-0.1324401376 0 0.01985134691)
(-0.1798762885 0 0.0229166474)
(-0.2103729073 0 0.04730418534)
(-0.194327134 0 0.03656077295)