/*--------------------------------*- C++ -*----------------------------------*\
| =========                 |                                                 |
| \\      /  F ield         | OpenFOAM: The Open Source CFD Toolbox           |
|  \\    /   O peration     | Version:  2.1.x                                 |
|   \\  /    A nd           | Web:      www.OpenFOAM.org                      |
|    \\/     M anipulation  |                                                 |
\*---------------------------------------------------------------------------*/
FoamFile
{
    version     2.0;
    format      ascii;
    class       volScalarField;
    location    "1.6";
    object      deltaf;
}
// * * * * * * * * * * * * * * * * * * * * * * * * * * * * * * * * * * * * * //

dimensions      [0 1 0 0 0 0 0];

internalField   nonuniform List<scalar> 
2828
(
0.001312543002
0.001670814747
0.001619931374
0.001161073872
0.0006162611743
7.449484693e-05
1.922611729e-05
1.781801494e-05
0.0003073707659
0.0009734576989
0.001341982005
0.001290928307
0.0008516786119
0.0003674081404
0.0003573987805
0.00177049089
0.005498764777
0.0001362094216
0.0001455943339
3.979524326e-05
3.636136911e-06
8.058491852e-06
0.0001684975285
0.0006932453109
0.00109791684
0.001133292498
0.0008020799574
0.0006678592938
0.001366497225
0.003262494775
0.005054264206
0.003824444436
0.001345317912
8.744935049e-05
0.0001474798659
9.283714242e-05
1.29737672e-05
1.305171152e-06
7.476975394e-06
0.000135595499
0.0006471750075
0.001211779376
0.001586429785
0.001612690849
0.001435739111
0.002051508211
0.003305573222
0.003781568556
0.002317620804
0.0007044696795
0.0001808455579
0.0003883623519
7.284201476e-05
0.0001160759451
0.0001241389427
3.956603059e-05
4.070510495e-06
7.451599509e-07
7.72624245e-06
0.000127743616
0.0006598501488
0.001440415384
0.002281240325
0.002853924919
0.002869713233
0.002682948982
0.002770019653
0.002390070187
0.001244154522
0.0003034884436
0.0002090262738
0.0005965030934
0.0005811046993
5.551509478e-05
7.845788519e-05
0.0001145195661
5.933273903e-05
1.10382809e-05
1.56987961e-06
4.19730504e-07
9.407646123e-06
0.0002077975141
0.0007629174866
0.00166759033
0.002461417643
0.002927593634
0.003412530988
0.003396938798
0.002621206373
0.001597693957
0.000662312969
0.0002318958479
0.0003045713225
0.0007018406883
0.0003831960878
0.000281089527
3.753340332e-05
4.800179548e-05
8.845673799e-05
5.843839943e-05
1.602291539e-05
3.616136644e-06
8.219882758e-07
1.318070124e-07
5.025982503e-08
1.013839076e-07
2.000891678e-07
0.0002841201774
0.002797359639
0.002921118933
0.002933176307
0.003096282735
0.00256368362
0.001341781609
0.000486994623
0.0003005051319
0.001145336918
0.0005275842122
0.0002688495767
0.0002091424138
2.341618712e-05
2.246734936e-05
5.829415509e-05
5.420707728e-05
1.881733324e-05
5.346545077e-06
1.743372513e-06
4.501421278e-07
1.079318267e-07
3.87554452e-08
5.753070179e-08
9.303373213e-08
6.32783663e-07
1.776709619e-06
3.870462239e-06
0.001827911775
0.00211931494
0.002165586735
0.00141972156
0.0007154161739
0.001025441568
0.0007637371774
0.0003656680182
0.0002111742163
0.000127799211
9.594087116e-05
1.590855225e-05
1.747387969e-05
4.221568725e-05
3.018936825e-05
1.007203746e-05
3.161344339e-06
9.487055244e-07
2.390458367e-07
8.447013852e-08
7.151347393e-08
1.796346508e-08
1.11746176e-07
1.090134855e-06
3.578022713e-06
2.725797352e-06
4.24362718e-06
0.0006222793489
0.001231718926
0.001319924701
0.0006146167214
0.001147552706
0.0005203183733
0.0002663609212
0.0001315463932
8.20805316e-05
3.925411772e-05
0.0004695602426
2.492348104e-05
1.340998766e-05
1.523745709e-05
2.800457419e-05
2.214453665e-05
8.689366125e-06
3.030492988e-06
8.495230183e-07
1.897160073e-07
4.556971589e-08
3.550070637e-07
4.592148907e-08
1.947416248e-08
5.196536347e-07
1.467057462e-06
6.597196272e-07
2.882502969e-06
7.640376458e-06
1.782888683e-05
5.198515932e-05
0.0003101929212
0.0009938621481
0.0003904214535
0.0001084969149
0.0001244310968
0.0003409095502
0.0010028943
0.002633047955
4.891822131e-05
3.921411223e-05
4.216884977e-05
3.409470681e-05
1.847578407e-05
7.287297388e-06
3.173075773e-06
1.18867567e-06
2.831260277e-07
4.884527359e-08
6.233006844e-08
5.621204253e-10
6.486403829e-09
1.827311631e-07
4.45225517e-07
3.320450318e-07
2.837443776e-06
1.656977278e-05
6.461652711e-05
0.000115921048
0.001421430008
0.001149259562
0.0005380939815
0.0005068878374
0.0008698244795
0.001547971358
0.002457986949
0.003170165915
0.000112089163
0.0001010885596
6.177779224e-05
3.124293366e-05
2.039071034e-05
1.059904169e-05
7.250718806e-06
4.540939765e-06
1.304173314e-06
1.645712068e-07
1.585255477e-09
1.664679621e-10
3.417757609e-09
3.629159711e-08
3.383992686e-07
6.349169376e-07
1.578381094e-06
1.937208119e-05
0.0001454213991
0.0002799270423
0.002534033065
0.001918070536
0.001043129623
0.001101594339
0.001529049746
0.00192760228
0.001944098536
0.001178381055
2.413551553e-07
0.0001932262257
0.0001351785948
4.171427312e-05
1.339656281e-05
1.760731159e-05
2.544668639e-05
4.390381596e-05
3.331766624e-05
1.011944679e-05
7.328550834e-07
1.213192696e-10
3.666518893e-10
1.386105508e-09
3.202737307e-09
9.160194708e-07
6.264014083e-06
2.112812876e-05
0.0001676351641
0.0001857085157
0.0003013149122
0.003600266404
0.0032310078
0.001753827813
0.001409658945
0.001543037235
0.001462540837
0.001013304875
0.0003673123673
9.372219232e-06
0.0002643077916
0.0002592654203
0.0001187942165
1.499459173e-05
3.508602487e-06
9.348273675e-06
9.638725673e-05
0.0002252056958
0.0002496698615
0.0001162482218
5.365554979e-06
5.303910277e-11
1.254194876e-10
1.212308166e-10
1.307446079e-10
6.98077189e-06
4.636197945e-05
0.0001464179875
0.0001938786555
0.000182743421
0.0001900793151
0.004287930811
0.004644328257
0.003078303614
0.001714703147
0.001290421514
0.0009395968129
0.0005159887632
0.0002291995852
0.0003379268153
0.0003156959842
0.0002857581797
8.189242156e-05
3.724908664e-06
2.750293548e-06
3.923027972e-05
0.0002567751903
0.00050048672
0.0007208155257
0.0007022281031
0.0001268862458
1.254880811e-11
2.73780356e-11
1.275221493e-11
2.215099502e-11
5.575294113e-05
0.0001214370557
0.0001880487144
0.0002302420617
0.0001964366198
0.0001586109404
0.003058365233
0.004612461573
0.004277754595
0.002594403779
0.001373711404
0.0007282730153
0.0003414475114
0.0001684282116
0.0002935880618
0.0003181644988
0.0003299016855
0.0001213861066
3.200946749e-06
3.776784627e-06
0.000117292922
0.0003902854966
0.0007314314914
0.00120715353
0.00141470843
0.0008490209325
3.730340952e-05
1.18221691e-09
1.42852234e-09
1.002104634e-05
0.0001644449877
0.0002053477452
0.0002338525935
0.0002331908002
0.0002037757172
0.0001664094725
0.0001293767299
0.002854654048
0.003472886534
0.002614955352
0.001457185264
0.0006722637516
0.0002619747056
1.525562227e-05
1.278429978e-05
0.0002636898419
0.0003389205875
0.0002396163658
2.628504259e-05
6.092648648e-05
0.0001795344311
0.0004049426082
0.0007385553988
0.001363182475
0.00190448032
0.001588289677
0.0006755763817
2.012022417e-05
0.0001082958375
0.0003558562229
0.0001025138908
0.0001634547392
0.0002196381998
0.000198426152
0.000166442431
0.0001301656753
0.0001147996178
0.0002566645714
0.0005663829443
0.001204294187
0.0007688563273
0.0003082156025
3.943308004e-05
6.785540977e-06
5.228667067e-06
0.0002492307082
0.0002744071588
0.0003307514047
0.0002507087808
0.0001327773676
0.0002141444996
0.0003602990749
0.0005501580872
0.0009734999804
0.001730552496
0.001778829178
0.001034878053
0.0002810488264
0.0001577899685
0.0001998671348
0.0001568658702
0.0002039924876
0.0001948255173
0.0001561032008
0.0001248785264
0.0001017732171
0.0001243441902
0.0003063064684
9.196249357e-05
3.031635871e-05
3.425213712e-05
9.077893317e-06
2.042671337e-06
1.335233752e-06
1.365327705e-06
0.0003044397975
0.0002573596693
0.0001580221919
0.0001639655078
0.0002690043029
0.0003898970192
0.0004789812993
0.0006024855106
0.001097618308
0.00137078882
0.0008719740271
0.0002835744839
0.0001310785526
0.0002821727316
0.0003325329082
0.0001902747399
0.0001559992696
0.0001217445009
9.104539396e-05
8.934391815e-05
0.0001799173416
0.0002045822038
5.347682014e-05
2.303327915e-05
9.367340647e-06
2.43522161e-06
4.385227378e-07
1.329512038e-07
2.39840587e-07
0.0003377874023
0.0002537840027
0.0001438961448
0.0002146395219
0.000344879186
0.0004350224925
0.0004543865558
0.0004541256174
0.0006174860152
0.0008456806238
0.0005635440845
0.0002256959839
0.0001570623249
0.0001534680861
0.0001491940273
0.0001356779977
0.0001368924425
9.779183075e-05
5.782004218e-05
7.146602523e-05
0.0002406157776
8.882302842e-05
4.652053419e-05
3.085568397e-05
1.79852115e-05
6.241095969e-06
6.273343943e-07
1.471667198e-08
1.138096089e-08
0.0002578317047
0.0001150729483
0.0001307331596
0.0002969106924
0.0004251681093
0.0004370236713
0.0003761939016
0.0003314586602
0.0003743488823
0.0005043525641
0.0003695278511
0.000192538254
0.0001481400337
0.0001370723194
0.0001336094289
0.0001179097527
0.0001253064839
8.52502439e-05
3.723273911e-05
4.874039594e-05
0.0002136479799
5.596974968e-05
4.607784408e-05
3.790395757e-05
2.858540161e-05
1.379176831e-05
2.124201767e-06
4.696697305e-09
3.395692696e-05
0.0002300161765
0.0004463402952
0.0004618210424
0.0003528245844
0.0002436017433
0.0002092528544
0.0002394316538
0.0002525202359
0.0001896600463
0.0001465150213
0.0001389477895
0.0001342555764
0.000131286701
9.410626873e-05
0.0001069727753
9.88116253e-05
4.8997505e-05
4.464268273e-05
0.0001209166697
4.235086553e-05
3.912291486e-05
3.634339405e-05
3.719278386e-05
2.651382567e-05
6.662488657e-06
6.321534184e-06
6.400464753e-06
0.0005223621421
0.000542040326
0.0003471400813
0.0001871582706
0.0001150369918
0.0001422168486
0.0002149036314
0.0002259549383
0.0001929267369
0.0001701212208
0.0001544683105
0.0001346411426
0.0001197035939
7.527271214e-05
9.546304973e-05
0.0001489514676
0.0001352245841
7.08922361e-05
1.383778485e-05
2.171494222e-05
2.995230727e-05
2.261490779e-05
3.374471905e-05
4.177161421e-05
2.264958766e-05
0.0008338617153
0.0003024351832
0.0001177744125
5.749855618e-05
6.773349305e-05
0.000161844874
0.0002484885739
0.0002615650307
0.0002281218272
0.0001907815906
0.0001552250798
0.0001205450568
9.507305597e-05
0.000101229572
0.0001211283384
0.0001291981508
9.464796476e-05
6.641176517e-05
3.095091735e-05
7.430581701e-06
2.895962679e-06
4.820359431e-06
1.081083797e-05
3.095452981e-05
9.663774453e-05
0.000240051356
6.900715803e-05
5.646927948e-05
3.773337173e-05
0.0001014293475
0.0002236433239
0.0002782221247
0.0002624597895
0.0002234571243
0.0001784431007
0.0001333370056
9.485823694e-05
7.353940394e-05
0.0001207080664
0.0001216076448
0.0001021391699
9.866954319e-05
0.0001021231479
9.284296453e-05
6.470977023e-05
5.013802926e-06
1.681265801e-06
6.858395406e-07
2.433654447e-07
0.0001554541024
3.660232005e-05
2.602900852e-05
0.0001980598847
0.000294127182
0.0002607978288
0.0002158348502
0.0001853000036
0.0001436500683
9.912272839e-05
6.62920133e-05
5.925949614e-05
0.0001335388948
0.0001229179349
7.677633045e-05
6.166764048e-05
7.592367355e-05
9.919900746e-05
0.0001315159301
5.162729267e-05
1.639464908e-05
2.134218234e-05
2.035686742e-08
9.749171142e-05
0.0003800358027
0.000282996779
0.000167390065
0.0001566011838
0.0001486303982
0.0001048244002
6.416585256e-05
4.347181568e-05
5.746635706e-05
0.0001573143424
0.000120789367
4.049823414e-05
2.196704542e-05
3.440746225e-05
6.566851287e-05
0.0001110648877
0.0002363300536
0.0003291820912
0.0003566795042
9.153906294e-05
7.314124776e-05
0.0001513605195
0.0001220544326
6.350111246e-05
3.546522589e-05
3.380294293e-05
6.627836909e-05
0.0001612261733
0.0001221315482
3.229579268e-05
1.201872434e-05
1.865320962e-05
4.227034727e-05
8.408817495e-05
0.0001309433504
8.656760001e-08
0.0001289582929
0.0001897328633
6.927815166e-05
2.182756165e-05
2.34991247e-05
4.309423195e-05
6.969342995e-05
0.0001543592267
0.0001372715834
5.118520375e-05
1.392701872e-05
1.59448498e-05
3.173287013e-05
2.006870277e-07
8.500511257e-07
3.794158033e-05
5.353190001e-05
6.93336048e-05
0.0001412519943
0.0001558079414
7.102694605e-05
1.590488523e-05
1.563791096e-05
2.744077041e-05
0.0001276904027
0.0004491512732
0.0008605969455
0.00105539723
0.001162777505
0.001392019404
0.001535481163
0.001534588238
0.001568530135
0.001705860383
0.001488162712
0.001302606196
0.001427922518
0.001043576507
0.0007270027138
0.0008522778882
0.0004391120368
4.48460233e-05
1.791265142e-06
2.897843393e-05
0.0001540620258
0.0001508421209
0.0001236642932
7.020812076e-05
2.224313055e-05
3.715258569e-05
7.552093556e-06
4.609170579e-06
1.168897618e-05
0.002751657978
0.004468557464
0.00428881688
0.005409922849
0.005680080421
0.005962034573
0.004500520648
0.003825660028
0.0001049522443
0.0001375181929
0.000154331882
0.0001565148691
0.0009427051383
0.0005341770993
0.001066779394
0.0001037464126
7.445986869e-05
8.000105357e-05
7.775738741e-05
0.000102529767
0.0001327351468
0.0001121503248
0.0001669113458
0.0002687983335
0.0003085491748
0.0004951356855
0.0006659825274
6.393403059e-05
6.482570368e-05
7.039987424e-05
0.000488802248
0.0003629061038
4.576489029e-05
4.543870231e-05
5.539465722e-05
0.0002504008671
0.0002343803465
3.003059644e-05
2.947965271e-05
3.392303102e-05
3.588898651e-05
0.0001700427086
0.0001651351612
0.000203214675
0.0001417983054
1.923723497e-05
1.580352747e-05
2.197277948e-05
1.950425518e-05
5.330060763e-06
8.317532505e-05
1.782280123e-05
1.887489103e-05
0.0006484689499
3.253572759e-05
2.377157161e-05
1.885695453e-05
0.00319732194
0.003565016497
0.00355597675
8.862616796e-05
7.565837757e-05
6.99352984e-05
4.022019082e-05
0.002061620459
0.001277211246
0.003249798745
1.161139007e-07
0.0001513242702
0.0001171214586
9.159367353e-07
0.000232162119
0.0002316072537
0.0001897236975
0.0001865140597
0.0003042873351
0.0002940511405
0.0003110382581
0.0002801061539
0.0005009319054
0.0005492430384
0.0004287240182
0.0003238290194
0.0003430240254
0.0003309170999
2.51125643e-05
0.0001720163396
0.0004659086148
0.0002910111561
0.0003385496515
0.0003511419046
8.762327661e-06
8.299301459e-06
1.611387836e-05
0.0002521294908
0.0002672146941
0.0002969003188
2.833610104e-06
3.318435237e-06
5.40979517e-06
0.0002810539036
0.0002559085493
6.35423368e-07
1.81674275e-06
0.0003336776893
0.0003064006894
6.513081864e-08
0.0003459844567
0.0003095867141
0.000280672486
0.0003098812727
9.465458049e-11
1.113825572e-09
9.867446797e-09
0.000205358989
0.000177027405
0.0002327260033
2.191829311e-07
2.166166809e-07
1.450762025e-08
9.494064174e-05
0.0001359372912
1.430492593e-06
7.658788604e-07
0.0006120014406
0.0003054380663
4.549304336e-05
6.027128077e-07
3.076395017e-07
0.00127465005
0.0002609284699
0.0001450832223
0.0005030280753
1.373129749e-08
8.847477803e-09
5.510779393e-05
2.738721535e-07
7.713821083e-05
6.568680039e-06
2.07597362e-07
6.126465017e-08
7.42668664e-05
7.758058288e-05
1.965787207e-05
0.0001771723986
4.891253791e-05
0.0001951639074
0.0005055431859
0.0003087243237
0.0001744453274
0.0002258645322
0.0003091456008
0.0002509773262
0.0002978092782
0.0007290166146
1.79524787e-08
2.401728654e-08
0.0001783551025
7.248884124e-05
9.483328941e-05
0.0001083395588
5.062734685e-08
0.000195989427
0.0001992724966
0.0001728136482
0.0001998471408
7.38861531e-05
0.0001226483399
1.496917505e-05
1.362391859e-05
1.336529395e-05
1.537477673e-05
2.146034172e-05
2.3158559e-05
4.592239744e-05
4.504107729e-07
8.524493862e-08
4.065263307e-05
2.781803954e-05
4.308593395e-05
4.815408379e-05
4.589816226e-05
5.456793261e-05
6.10147176e-05
6.050452908e-05
6.924956267e-05
9.054865192e-05
9.176300309e-05
0.0001374319669
0.0001691617095
0.0001702070629
0.0001609495729
0.0001240616283
2.958779224e-05
1.056807191e-05
5.474382975e-05
8.506075007e-05
0.0002127614264
0.0005027349564
0.0006658743972
0.000799610593
0.001020430257
0.001199290825
0.001167543153
0.001205986265
0.00137222306
0.001130181656
0.0009560213639
0.001106524748
0.0007271253163
0.0005267075106
0.0005727582916
0.0004529540102
0.000521191805
0.000216251575
0.0008590962362
0.001557384335
0.0007806940154
0.000121122557
6.542851496e-05
9.403013445e-05
2.294390732e-05
6.069650947e-06
1.14718936e-05
2.029623279e-06
2.044160752e-06
2.711109985e-06
7.411728858e-06
3.844186328e-05
4.313951178e-05
0.0001482864874
0.000373266519
0.0004121764426
0.0006593455624
0.0009181362905
0.0009262982081
0.001122524696
0.00125136704
0.001173809678
0.001281949495
0.001220637085
0.0009946085063
0.001085309661
0.0009551076013
0.0006541764232
0.0009801983812
0.001242986352
0.0008823131775
0.001768597416
0.002531075286
0.002168316968
0.003418267562
0.004209001465
0.004458125669
0.004482175053
0.00413437573
0.004952028262
0.003047053536
0.001983304705
0.002789420637
0.0001433745312
0.0001141706018
0.0001389630946
6.436900759e-05
2.502058392e-05
4.212981937e-05
7.23273983e-06
2.00449704e-06
3.394907035e-06
9.475284337e-07
1.844140302e-06
1.86236457e-06
7.817812294e-06
3.639987288e-05
3.609122984e-05
0.0001336739394
0.0003396603176
0.0003508056603
0.0006287705041
0.0009521803971
0.0009470892915
0.001290927286
0.001643235109
0.001431254425
0.001971377147
0.002215188144
0.001655976975
0.002309063497
0.002243047045
0.001486771897
0.002111108193
0.002102013542
0.001615723614
0.002311467214
0.00267480839
0.002665414645
0.003039838487
0.003225499272
0.003766932992
0.003051996867
0.002510119407
0.003295061333
0.001680981366
0.0009681048043
0.001410524175
0.0004945847841
0.0003923639071
0.0004590360522
7.259754833e-05
9.682820205e-05
8.73186313e-05
0.0001227155143
0.0001233012512
0.0001366167054
9.319012016e-05
5.20050674e-05
8.285264501e-05
2.160665768e-05
7.358615496e-06
1.380314078e-05
2.413514147e-06
8.550590455e-07
1.263946089e-06
5.956789595e-07
1.745058473e-06
1.809208404e-06
8.057115077e-06
3.413037105e-05
3.408945314e-05
0.000118918067
0.0003145210951
0.0003411495252
0.0006467394827
0.001102356164
0.001034380499
0.001603127743
0.002023912226
0.001866803669
0.002365022052
0.002695889207
0.002624896124
0.003004564475
0.003243404773
0.002935219997
0.003353584256
0.003305772522
0.002743860533
0.003127018507
0.00288707268
0.002718184376
0.002626661191
0.002309028432
0.002702430117
0.001873182213
0.001349212007
0.00185069107
0.0009230805421
0.0004704918551
0.0006514523963
0.0002110161845
0.0002630300473
0.0003414740129
0.0002180085181
0.0004670085984
0.0002971658878
0.0006582560222
0.000607626485
0.0007047490002
4.692423488e-05
6.255934286e-05
5.926068441e-05
8.78300774e-05
0.0001016556313
0.0001050719805
9.002348446e-05
6.098595683e-05
9.495092514e-05
3.215968348e-05
1.410877143e-05
2.823890281e-05
5.900128643e-06
2.583589813e-06
4.108004644e-06
1.110988576e-06
4.250600812e-07
6.022506979e-07
1.639652109e-07
1.0067673e-07
1.44461938e-06
1.971628749e-07
1.363138115e-06
5.795745564e-05
1.457145619e-05
0.0001238982132
0.0004547331164
0.0004960879292
0.001093723689
0.001190289626
0.001670244767
0.002072197694
0.002062558004
0.002443014283
0.002413963619
0.002624250371
0.00254492905
0.002813350282
0.003206371407
0.003167616362
0.003347190051
0.003512585462
0.003360502408
0.003110976612
0.003075431227
0.002636835068
0.002020480281
0.002103314189
0.001400683017
0.0008455872795
0.001060539919
0.000555929522
0.0003279804724
0.0005128168275
0.0002278006173
0.0002664186645
0.0002210720218
0.0008126306894
0.0009007884928
0.0007451292522
0.0006618415894
0.0004343778357
0.0005373845417
0.0003109990333
0.0002625285434
0.0003102975098
5.517514555e-05
7.52164434e-05
7.20641644e-05
7.417569704e-05
5.523418179e-05
8.190849321e-05
3.299352918e-05
1.707879423e-05
3.319954126e-05
8.532462695e-06
4.493180969e-06
7.404453827e-06
2.467647552e-06
1.298660652e-06
1.803340778e-06
6.118570757e-07
2.622140849e-07
3.281594439e-07
1.164449549e-07
5.956770303e-08
6.799690982e-08
4.064626785e-08
3.829861405e-08
5.704459575e-08
7.87962895e-08
7.602489002e-08
1.226756764e-07
1.090890174e-07
1.57761988e-06
6.830193342e-06
1.145131579e-06
1.984360345e-06
0.002147083048
6.293825178e-06
1.760132954e-05
0.003060431543
0.0005740494727
0.001804172745
0.002753513031
0.002450934289
0.002511572864
0.003039233607
0.002691367759
0.002660228583
0.00295501545
0.002428974657
0.001928096952
0.00196953655
0.001373291318
0.0008808226995
0.0008125186141
0.000547473487
0.0004359587934
0.0003450099483
0.0005075448857
0.001262240847
0.0005721489501
0.001053103514
0.0006321593011
0.0008505843284
0.0004034796354
0.0003013588237
0.0003422961362
0.0002437797609
0.000196558197
0.0002296403319
2.040467263e-05
3.621377327e-05
3.639136628e-05
5.232820062e-05
5.255415516e-05
6.623801896e-05
3.895552415e-05
2.328720287e-05
3.454707299e-05
1.255387699e-05
6.805219335e-06
9.808497676e-06
3.871549788e-06
2.240301065e-06
3.065890488e-06
1.252787777e-06
6.566966051e-07
9.253920586e-07
3.272002821e-07
1.677852156e-07
2.120123638e-07
9.909735878e-08
6.361873347e-08
5.837478231e-08
4.573508514e-08
2.414611849e-08
2.704874772e-08
2.980875938e-08
6.972651412e-08
6.529175783e-08
1.119257865e-07
2.602352439e-07
4.924842459e-07
7.627203883e-07
1.918947784e-06
1.143552057e-06
2.350473603e-06
2.330305788e-06
2.312279159e-06
2.500332725e-06
3.257012766e-06
1.111012605e-05
0.0005066678503
0.001128102313
0.001915904971
0.001585178368
0.001746820646
0.002193737916
0.001806432219
0.001712727125
0.001853539867
0.001505769014
0.001317281614
0.001007256779
0.001163515448
0.0010921793
0.0006535315719
0.001318075416
0.0009712784984
0.001264080254
0.000581600234
0.0004407073966
0.0004846110663
0.0003283630964
0.0002251281205
0.0002736852064
0.0001631709924
0.0001125269587
0.0001574351075
7.902748465e-05
5.031276629e-05
0.0001132626444
1.255349559e-05
1.11782503e-05
1.281548187e-05
1.431443266e-05
2.358439079e-05
3.052712016e-05
3.307202097e-05
3.341389948e-05
4.120360156e-05
2.537733433e-05
1.592677479e-05
1.819616753e-05
9.186525244e-06
5.224777864e-06
5.586122353e-06
2.941478433e-06
1.592138978e-06
1.76966058e-06
8.150779818e-07
3.969857591e-07
4.824035424e-07
1.87168545e-07
9.139898944e-08
1.267116711e-07
5.820014569e-08
8.427387657e-08
7.698459517e-08
1.784711818e-07
6.66617275e-08
3.096726439e-08
2.7703549e-08
3.34098014e-08
7.049980264e-08
4.687696619e-08
2.247128891e-07
4.05561435e-07
8.067044546e-07
1.860655635e-06
2.498761616e-06
2.397950031e-06
1.801424515e-06
3.302555279e-06
1.32989701e-06
1.634173524e-06
2.619958794e-06
2.470581644e-06
3.655480617e-06
0.000104644656
9.293187477e-06
7.442016743e-05
0.0009793027921
0.0001766517443
0.0002235174186
0.001380371683
0.0001077353435
0.0001209877657
0.0009395132216
0.0002228277243
0.0007782472531
0.0007437428
0.001077514638
0.0006618118007
0.0007526687002
0.0004607735454
0.0002704561144
0.000395886554
0.0001077204736
3.070650185e-05
0.0001744765318
9.891957183e-06
4.891213213e-06
9.490530779e-05
1.582129288e-05
4.0936047e-05
4.928120409e-05
0.0001089156217
0.0002590185005
7.766668336e-05
2.047269631e-05
2.1737893e-05
1.271311646e-05
2.489973829e-05
2.797170441e-05
2.131064668e-05
2.93302677e-05
2.640749064e-05
2.850616739e-05
1.957425302e-05
1.269121062e-05
1.438699535e-05
7.846172973e-06
4.91664541e-06
5.189493535e-06
3.062240601e-06
1.814103944e-06
1.664495305e-06
1.010866892e-06
5.496673007e-07
4.115804948e-07
3.003132494e-07
1.409191273e-07
8.194148936e-08
4.809000775e-08
5.144489636e-08
7.124759924e-08
2.39189768e-07
4.83410871e-08
1.639457355e-07
5.941400551e-09
2.307427757e-09
1.248110524e-08
9.564524255e-09
7.744279247e-08
1.285055325e-07
3.223529441e-07
7.906957977e-07
1.257374024e-06
8.256191202e-07
4.533652592e-07
8.869657084e-07
3.933893026e-07
1.092183633e-06
1.306310413e-06
3.131930248e-06
6.861837011e-06
5.109853469e-06
1.272391174e-05
2.144508368e-05
1.120314284e-05
3.385317863e-05
5.088122449e-05
3.141400031e-05
7.417569505e-05
0.0001429588577
9.46880243e-05
0.000692844581
0.001463036509
0.001186120434
0.00097847832
0.0006500423418
0.0006076420774
0.000399403389
0.0002674615956
0.000197748096
0.000247945896
0.0003058936864
9.419859713e-05
0.0004326412796
0.0006383514124
0.0001995320726
0.000942807353
0.00136721939
0.00058722696
0.001920541007
0.002567735855
0.001657548844
6.922258965e-05
6.605911784e-05
4.16343967e-05
5.718321055e-05
4.57585579e-05
3.929781705e-05
3.566918387e-05
2.710987009e-05
2.675332664e-05
1.895873106e-05
1.259664367e-05
1.178539295e-05
7.98917245e-06
5.613605342e-06
4.744832383e-06
4.267986733e-06
3.171506071e-06
2.034773904e-06
2.120156767e-06
1.193509801e-06
6.1491841e-07
5.613101935e-07
1.97437922e-07
1.069546386e-07
6.690155403e-08
2.08916656e-08
9.724379408e-08
1.154333236e-08
4.552679303e-10
2.114580367e-09
2.236090691e-10
4.873587262e-10
7.291038386e-10
4.857775347e-09
2.575850708e-08
4.654848749e-08
8.94355284e-08
2.086673639e-07
4.420969209e-07
2.88421829e-07
3.905929006e-07
3.236154113e-07
4.042721813e-07
7.661554601e-07
8.886118494e-07
2.240948831e-06
6.231421911e-06
7.226452045e-06
1.745994945e-05
4.767622935e-05
3.546354468e-05
0.0001033018608
0.0001501717698
9.222627024e-05
0.0001856305697
0.0006136012575
0.0002591947559
0.002089858625
0.001821021972
0.001550498011
0.001466819266
0.001048191455
0.0007972148009
0.000765239267
0.000717168132
0.0004568998976
0.0008200036529
0.001015427835
0.0006482714487
0.001273687744
0.001573996817
0.001170282243
0.001890104666
0.002178831604
0.001989521054
0.00237233084
0.002374257912
0.00288275743
0.000152152162
0.000146425468
0.0001087505323
0.0001246414686
8.983692816e-05
8.401334156e-05
5.517074281e-05
3.238869963e-05
4.282311878e-05
2.237190515e-05
2.007180196e-05
2.528343931e-05
2.023786748e-05
1.914360722e-05
1.547463472e-05
1.582305083e-05
1.563977103e-05
8.328786439e-06
1.578826559e-05
1.442028298e-05
6.11956017e-06
1.144283845e-05
6.809174542e-06
2.667368439e-06
3.28580597e-06
1.164451074e-06
4.757979312e-07
3.482656438e-07
3.353664501e-10
2.37698191e-09
2.699743379e-10
2.214965617e-10
2.323397975e-10
2.2997359e-10
7.056039977e-10
4.450504413e-10
2.222018806e-09
5.392915975e-09
1.257999939e-08
1.197406441e-08
2.775040469e-08
7.945644194e-08
5.935668947e-07
1.371017602e-06
6.747541994e-07
1.419510584e-06
7.994964042e-07
7.003299116e-07
1.124167885e-06
5.831795883e-06
5.043742957e-06
4.109370994e-05
0.0001064606855
6.285408141e-05
0.0001907474035
0.0002362418387
0.0002097161622
0.0003312765526
0.002116498129
0.001349893985
0.003065487369
0.002909576604
0.002290987139
0.002509420313
0.001845734784
0.001392651424
0.00135850381
0.001221046237
0.0009852197317
0.001297031491
0.001451982549
0.00130060563
0.0016067196
0.001716311944
0.001750744334
0.001745462466
0.001661158039
0.0020111549
0.00143955571
0.001082851785
0.001672917789
0.0006421669886
0.000232464599
0.0005343655437
0.0002312585782
0.0001936422648
0.0001759059301
0.0001325110476
6.94892164e-05
8.388672828e-05
2.696227937e-05
1.035808013e-05
2.004224929e-05
6.944428572e-06
8.391361524e-06
1.388490824e-05
1.305712793e-05
2.478157695e-05
2.17475776e-05
4.775219425e-05
8.725120896e-05
3.724865861e-05
0.0001133542035
0.0001178728825
4.168662082e-05
0.0001000830467
6.819643343e-05
2.058166889e-05
3.370961824e-05
1.244816257e-05
3.613749129e-06
1.765642859e-06
8.872445033e-11
1.288634394e-10
7.252761605e-11
1.173944298e-10
1.995685621e-10
2.519136171e-10
5.430983114e-10
1.229226464e-09
4.5626763e-10
5.27550977e-10
2.014894459e-09
6.64503608e-10
1.351635028e-07
3.360359927e-08
2.097515213e-06
9.246271802e-06
3.097255902e-06
2.002791878e-05
4.699607129e-05
5.787321417e-06
0.0001397683713
0.000204135878
9.720742478e-05
0.0001995261336
0.0001883003906
0.0001845884967
0.0001816761556
0.0001750210775
0.0001831226323
0.0002462342365
0.002584520882
0.002577472072
0.004049719204
0.004233114073
0.003602071644
0.004013124951
0.003220474253
0.002447772117
0.002318434103
0.001739878377
0.001442611233
0.001508719536
0.001447165991
0.001480058912
0.001409167945
0.001325417701
0.001545742545
0.001174880097
0.0009623768966
0.001282628685
0.0007115518233
0.0004618400828
0.0006878757167
0.0002607651181
0.0001540063987
0.0001239670907
0.0002747918438
0.0001939340406
0.0001982346407
9.899185992e-05
3.302236803e-05
5.098688298e-05
7.384992592e-06
2.51650884e-06
4.787397046e-06
2.482592954e-06
3.352665519e-06
4.609320972e-06
1.672080579e-05
7.49029266e-05
3.842730298e-05
0.0001712028888
0.0002694124631
0.0001675429725
0.0003603037553
0.0004338924535
0.0002570209213
0.0004709600338
0.0004614969254
0.0002064396236
0.0003504910211
0.0001369352354
3.804370218e-05
2.398183743e-05
7.185292187e-10
1.103422439e-10
3.545699918e-11
1.014398181e-10
9.800460359e-11
5.990679435e-11
5.422294904e-11
1.70787714e-10
4.407119256e-11
3.550230431e-11
1.216586441e-10
3.750959172e-11
2.53094665e-06
5.296291159e-07
2.124235117e-05
4.693336166e-05
2.299011325e-05
7.664749158e-05
0.0001114589903
0.0001067438921
0.0001530779136
0.0001933912912
0.000176450666
0.0002129668967
0.0002068197045
0.0001933943988
0.0001877615044
0.0001692323938
0.0001695016307
0.0001631616108
0.000637827843
0.001688504705
0.004021951985
0.004490576545
0.004617195749
0.004940207813
0.004660965554
0.004039430187
0.00383870044
0.002898834956
0.002230850765
0.002116364729
0.001601070559
0.001453679826
0.001269160331
0.001015688354
0.001129442839
0.000788064303
0.0005777445051
0.0007268852035
0.0003977351665
0.000267277936
0.0003393121084
0.0002114593901
0.0003187401668
0.0002192264895
0.0003023556523
0.0002062361326
0.0001912128108
8.301394993e-05
1.471579521e-05
1.983225983e-05
2.748721094e-06
2.391795985e-06
2.130166136e-06
3.399000575e-06
1.177529751e-05
4.724618118e-06
7.431978645e-05
0.0001965716384
0.0001328829485
0.0003346638025
0.0004724041304
0.0003763893174
0.0006311693327
0.0008102244722
0.0006234688873
0.0009773457487
0.00108139207
0.0007665176799
0.001061883599
0.0008188665002
0.0004102738152
0.0004394901484
1.172722835e-05
2.524919747e-08
1.262672605e-09
1.778446487e-10
7.550034652e-11
9.014342023e-11
1.156507525e-10
1.619725951e-11
7.998734144e-11
6.907792574e-11
1.185913081e-11
2.789279546e-10
5.850037106e-05
1.652997132e-05
0.0001135759749
0.000147603829
9.044181607e-05
0.0001726830781
0.0001957485857
0.0001535429959
0.0002178724193
0.0002349006106
0.0002188359435
0.0002377017774
0.000225085815
0.0002188931355
0.0002046914746
0.0001846679053
0.0001758060045
0.0001668768444
0.0001482684234