/*--------------------------------*- C++ -*----------------------------------*\
| =========                 |                                                 |
| \\      /  F ield         | OpenFOAM: The Open Source CFD Toolbox           |
|  \\    /   O peration     | Version:  2.1.x                                 |
|   \\  /    A nd           | Web:      www.OpenFOAM.org                      |
|    \\/     M anipulation  |                                                 |
\*---------------------------------------------------------------------------*/
FoamFile
{
    version     2.0;
    format      ascii;
    class       surfaceScalarField;
    location    "1.6";
    object      phi;
}
// * * * * * * * * * * * * * * * * * * * * * * * * * * * * * * * * * * * * * //

dimensions      [1 1 -1 0 0 0 0];

internalField   nonuniform List<scalar> 
5536
(
1.210326861e-07
-2.840070815e-08
-1.663110045e-07
1.906643743e-07
-2.61350502e-08
-1.917543335e-07
1.75458015e-07
3.539049815e-08
-1.475142731e-07
1.156718902e-07
9.166338668e-08
-8.343372391e-08
5.778962736e-08
8.947020442e-08
-1.582527862e-08
-3.299344877e-09
1.304013626e-09
-1.539844223e-09
-3.628325889e-10
2.49583362e-09
9.852821646e-10
-1.49821733e-09
-6.189302529e-09
1.459058683e-08
3.371929887e-08
-1.01473342e-08
-8.951260283e-08
1.993997471e-08
1.32739163e-07
-1.276623599e-08
-1.589590763e-07
1.462215897e-08
1.742160446e-07
-6.840997129e-09
-1.730745391e-07
-3.558585599e-08
1.536430032e-07
3.203984376e-08
-1.210482967e-07
-8.674554548e-08
8.445533522e-08
8.529746621e-08
-5.512831052e-08
-7.744064711e-08
4.295458829e-08
9.485833374e-08
-5.213673842e-08
-3.171057641e-10
1.336366113e-07
1.485130919e-07
-3.027809663e-07
8.291936517e-09
7.770670932e-07
-1.557446834e-06
6.739523355e-07
1.792076138e-06
2.855588311e-06
-1.950607814e-06
-1.786681603e-08
-1.22147262e-08
2.612155175e-08
1.049951539e-08
-1.986916016e-08
-8.744065104e-09
8.009838998e-09
3.838299272e-09
-4.650947002e-09
-1.111083646e-09
7.367776162e-10
3.313726622e-10
-4.226125526e-10
-2.221328701e-10
1.24262302e-09
5.841803417e-10
-1.322767486e-09
-3.514023952e-09
5.666607692e-09
1.862768358e-08
-1.923301129e-09
-5.546058767e-08
2.545634467e-09
1.016159468e-07
1.036848212e-08
-1.382787799e-07
-7.150824422e-09
1.645760526e-07
2.862108144e-08
-1.780583325e-07
-4.040542939e-08
1.737263092e-07
6.830905815e-08
-1.557493344e-07
-1.005169942e-07
1.360512037e-07
1.470866469e-07
-1.356893621e-07
-1.556392413e-07
1.819587134e-07
2.603146339e-07
-2.955823003e-07
-3.760084114e-07
4.989318097e-07
6.129967344e-07
-8.020188071e-07
-1.298507717e-06
1.197419254e-06
1.555064847e-06
-1.59075554e-06
-2.6679438e-06
1.690084076e-06
2.363162241e-06
-1.561884635e-06
-1.643796491e-06
1.238589149e-06
1.278343796e-06
-9.937700659e-07
2.168831455e-07
-3.87754653e-07
5.183883196e-07
4.957113181e-09
-9.473722519e-09
-6.486234683e-09
1.865755518e-08
1.202991617e-08
-1.894947096e-08
-1.313585588e-08
1.557747047e-08
9.584492791e-09
-1.092375765e-08
-4.608916127e-09
2.543054699e-09
1.443061638e-09
-1.346425093e-09
-3.626713276e-10
2.858563153e-10
1.374950459e-10
-2.20923361e-10
-2.010949256e-10
1.551215654e-09
7.70365862e-10
-1.817194718e-09
-3.806380891e-09
-1.390487605e-09
1.70851241e-08
3.655794919e-09
-5.200145908e-08
-2.496210799e-08
1.059065094e-07
3.725647486e-08
-1.617050104e-07
-6.001975026e-08
2.086674448e-07
9.438501737e-08
-2.474874016e-07
-1.155783927e-07
2.78922624e-07
1.714714136e-07
-3.045799798e-07
-2.273213459e-07
3.26322771e-07
3.329529503e-07
-3.542486944e-07
-3.962852826e-07
4.151894804e-07
5.557470019e-07
-5.351768931e-07
-8.075663564e-07
7.129599105e-07
9.415704493e-07
-9.208299825e-07
-1.620495267e-06
1.103468463e-06
1.552168872e-06
-1.181137669e-06
-1.989256797e-06
1.079771099e-06
1.597567243e-06
-8.47082166e-07
-9.006286807e-07
5.559424991e-07
5.950101168e-07
-3.340658246e-07
-1.047626301e-07
1.401787699e-07
5.227329278e-08
-7.727550737e-08
1.237663596e-08
-2.532042975e-09
1.086337782e-08
1.178793904e-08
-1.999133042e-08
1.407779951e-08
5.831824224e-09
4.63191876e-09
-5.84611376e-09
-5.993765289e-09
1.18174831e-08
9.364592364e-09
-1.380951831e-08
-1.329905416e-08
1.721088622e-08
1.383339276e-08
-1.348262029e-08
-1.006687369e-08
6.727315002e-09
5.086986353e-09
-3.621542556e-09
-1.793933043e-09
7.22337047e-10
5.052549238e-10
-4.170996928e-10
-1.534561592e-10
1.85198259e-10
9.708866092e-11
-1.567106855e-10
-2.511277305e-10
1.961791902e-09
1.017935107e-09
-2.144019553e-09
-4.308745008e-09
-5.440449061e-09
1.776949597e-08
5.320819324e-09
-5.413901885e-08
-4.927678142e-08
1.150567979e-07
5.374558662e-08
-1.889655636e-07
-1.229549122e-07
2.711903014e-07
1.531246033e-07
-3.684560014e-07
-2.324503943e-07
4.747745914e-07
3.090776308e-07
-5.640670296e-07
-4.467558601e-07
6.246807723e-07
5.553464296e-07
-6.612604635e-07
-7.29871645e-07
6.898510044e-07
8.89206411e-07
-7.291921822e-07
-1.029585485e-06
7.807438763e-07
1.107619455e-06
-8.204729111e-07
-1.40616506e-06
8.138578598e-07
1.240584514e-06
-7.296024762e-07
-1.232650952e-06
5.616998819e-07
9.250732512e-07
-3.589494832e-07
-3.706158312e-07
1.915489681e-07
-1.720188521e-09
-7.842740191e-08
-2.504600394e-08
1.687979946e-08
1.054615587e-08
-6.952495081e-09
-6.132130528e-09
-9.364888545e-09
1.158560257e-08
1.860938749e-08
1.751046609e-08
-2.456535274e-08
-6.32646681e-08
5.086127796e-08
-9.330417975e-08
-5.85668228e-08
3.990922146e-09
4.069017526e-09
-3.413872003e-09
-4.41718358e-09
6.894002642e-09
6.703803098e-09
-8.784589292e-09
-1.111534409e-08
1.409368248e-08
1.462677002e-08
-1.194554612e-08
-1.377219692e-08
8.899751307e-09
9.335941165e-09
-4.940772614e-09
-4.641614093e-09
1.783878038e-09
1.797585712e-09
-9.080116002e-10
-6.330052181e-10
2.697529777e-10
2.32337969e-10
-1.919590098e-10
-9.141453872e-11
1.153886672e-10
6.96047893e-11
-4.634800756e-11
-2.585304491e-10
2.287427173e-09
1.63617582e-09
-6.742177169e-11
-1.013670422e-08
-6.249557791e-09
3.986612572e-08
-5.480440978e-10
-9.110953997e-08
-5.243571803e-08
1.506350422e-07
6.115379514e-08
-2.271167085e-07
-1.381611436e-07
3.160030381e-07
1.501406592e-07
-4.173927173e-07
-3.675715859e-07
5.460469853e-07
2.577777568e-07
-5.915774065e-07
-6.423442856e-07
6.582107612e-07
5.816561807e-07
-7.033310145e-07
-9.897991001e-07
7.361179814e-07
9.925292304e-07
-7.625918373e-07
-1.173792224e-06
7.361129174e-07
1.176094238e-06
-6.633116294e-07
-1.106140216e-06
5.599720326e-07
1.01827561e-06
-4.287784707e-07
-6.885797254e-07
3.011423368e-07
5.556688761e-07
-3.210884356e-07
6.429429875e-08
1.079670636e-07
1.543467859e-07
1.467583994e-07
-1.065802237e-08
-1.079222458e-07
1.997074241e-08
1.774744084e-08
-1.352560963e-08
-1.911674128e-08
-3.949223727e-09
1.947839575e-08
8.980417545e-08
-4.821715688e-08
-9.259731139e-08
4.925848662e-08
6.873825243e-08
-2.762349997e-08
-5.29775239e-08
1.307996222e-08
-3.928342478e-08
-2.733556336e-09
2.393294281e-09
-1.830326154e-09
-2.931842543e-09
4.471905723e-09
3.795774665e-09
-5.001486088e-09
-8.75731384e-09
1.012974076e-08
1.373586219e-08
-9.411505747e-09
-1.496084837e-08
8.247064304e-09
1.179760294e-08
-4.821745697e-09
-7.086485973e-09
2.4510595e-09
3.453929992e-09
-1.253676412e-09
-1.540896811e-09
5.376922032e-10
7.17790968e-10
-3.641574123e-10
-3.50939135e-10
1.43937615e-10
1.620898019e-10
-1.101004126e-10
-6.700707178e-11
3.741416654e-11
2.8478339e-11
-3.236993827e-11
-1.618454329e-11
2.396426685e-11
1.194478074e-11
-2.022457322e-11
-1.107440992e-11
2.170160579e-11
1.468706589e-11
-2.006293597e-11
-1.425533916e-11
1.301511731e-11
8.614053491e-12
-2.805913347e-11
6.676448279e-12
-1.154732657e-07
1.656869893e-08
-2.823659466e-10
-5.420391682e-07
-2.219732554e-07
8.014868311e-07
-2.991018372e-11
-6.68449158e-07
-5.150513592e-07
4.85101267e-07
6.472270399e-07
-4.011170343e-07
-8.477426339e-07
4.25030687e-07
7.292632543e-07
-5.308398457e-07
-1.095833698e-06
5.451921446e-07
9.469574889e-07
-4.522551613e-07
-9.50379279e-07
3.367753841e-07
8.690999784e-07
-2.246052806e-07
-4.615352903e-07
1.254792594e-07
4.227738692e-07
-5.000271838e-08
-1.818567764e-07
8.252046172e-09
9.284134119e-08
9.343479831e-09
-2.775768038e-08
-2.138207477e-08
4.04398958e-08
2.313054455e-08
1.093514074e-07
-2.170165783e-08
-1.375103159e-07
5.331796572e-08
7.914158156e-08
-3.749459372e-08
-6.17046998e-08
7.864151697e-09
4.164835727e-08
-3.021285168e-09
-3.237328669e-08
4.947314277e-09
2.700237172e-08
-1.976000459e-08
8.070160763e-09
-6.382840999e-09
-1.12019437e-09
-1.86529007e-09
1.48774339e-09
1.915731454e-09
-1.385799096e-09
-3.96634986e-09
5.987320278e-09
8.899075378e-09
-5.688988394e-09
-1.295833954e-08
7.255919438e-09
1.232709128e-08
-5.213602389e-09
-8.553093614e-09
2.715234901e-09
4.796763414e-09
-1.703941743e-09
-2.451101486e-09
7.421045323e-10
1.283196285e-09
-5.09084286e-10
-7.184070405e-10
2.591987033e-10
4.106168929e-10
-1.873520163e-10
-2.24233776e-10
8.432629494e-11
1.141202868e-10
-6.344776323e-11
-5.678920992e-11
2.977313271e-11
3.051673455e-11
-2.765630729e-11
-1.826639204e-11
1.97586171e-11
1.240959664e-11
-2.267828819e-11
-6.501863996e-12
1.33284306e-11
5.295717039e-12
-7.623699148e-12
-4.920374046e-12
2.658268022e-11
5.384844051e-12
-2.597663492e-11
3.78666519e-12
2.712228646e-10
-7.648741133e-11
-2.029974395e-10
1.822939044e-10
5.564353091e-10
-3.74349379e-10
-5.383656282e-10
5.907535789e-10
3.663719939e-10
-7.413185028e-10
-5.713240072e-10
1.121604947e-09
-6.400026968e-07
-1.79743918e-10
4.658578301e-07
-2.99403546e-07
-7.680423831e-07
3.010704489e-07
5.79227618e-07
-2.658396097e-07
-7.519538554e-07
1.948677837e-07
6.01859152e-07
-1.082582595e-07
-3.955419786e-07
3.391677407e-08
3.625021475e-07
1.286770985e-08
-9.438567071e-08
-3.395968853e-08
1.097783205e-07
4.343867123e-08
-3.718853287e-08
-5.53162378e-08
-8.417097898e-08
5.182570945e-08
1.111225993e-07
-9.54653463e-09
-8.687125352e-08
-3.111487985e-09
5.02417896e-08
5.222152445e-09
-3.548656747e-08
-3.924398444e-09
2.275742853e-08
1.238878662e-09
-1.348144075e-08
2.353347898e-10
1.201036803e-08
-1.605102355e-09
-5.781930087e-09
2.857541333e-09
7.936082945e-09
-1.283026148e-09
3.140206017e-09
-2.965517551e-09
8.408733902e-10
1.413831162e-09
-6.88584735e-10
-1.02836916e-09
1.16799623e-09
1.547672966e-09
-8.725055884e-10
-3.634785894e-09
4.492099296e-09
6.778366535e-09
-3.211923251e-09
-8.009487045e-09
3.846458499e-09
6.553951163e-09
-2.973866405e-09
-4.17453687e-09
1.255861081e-09
2.34495506e-09
-1.052358399e-09
-1.303824847e-09
3.938479881e-10
7.548363886e-10
-3.448713619e-10
-4.444370748e-10
1.407416925e-10
2.544991991e-10
-1.173059815e-10
-1.385127498e-10
4.674673281e-11
7.27974152e-11
-3.547945058e-11
-4.005605072e-11
2.284550551e-11
2.66524979e-11
-1.40930676e-11
-2.300824908e-11
2.923235096e-11
2.266443775e-11
-3.804631344e-11
-8.905432855e-12
5.519759702e-12
1.828669419e-12
-6.030045663e-12
4.387917051e-13
1.978967354e-11
-2.528768953e-12
-9.627070987e-12
5.687444132e-12
1.427264681e-10
-2.31218743e-11
-9.805056373e-11
6.670540339e-11
3.675834268e-10
-1.616912652e-10
-2.567578307e-10
2.612833331e-10
3.796266176e-10
-3.131254677e-10
-2.225778114e-10
3.46171394e-10
-4.83155337e-09
-4.219134669e-10
-4.973569009e-10
3.038386568e-10
-4.030017898e-07
5.000612028e-08
1.702734492e-08
-1.076886189e-07
-4.687910435e-07
1.109820617e-07
2.460252419e-07
-5.529872835e-08
-3.458931529e-07
-5.684831724e-08
6.122524248e-08
1.619082046e-07
-7.90903453e-08
-1.820541354e-07
-2.786714015e-08
1.221152417e-07
2.076609628e-07
-4.653128879e-08
-2.052025073e-07
-3.461928427e-08
6.370375148e-08
2.307449765e-08
-3.79630523e-08
-1.213967867e-08
1.878031877e-08
9.018167704e-09
-3.401608824e-09
-6.19539717e-09
5.330088017e-09
3.938907086e-09
7.731891558e-10
-2.518141403e-09
8.680100763e-10
4.007787749e-10
3.947453363e-09
8.353923227e-10
-3.65692017e-09
2.18917661e-09
1.986513425e-08
-1.380522453e-08
3.518042873e-07
6.482285816e-08
-1.694608628e-09
-1.652961009e-09
1.048422226e-09
6.874421814e-10
-1.058582332e-09
-9.495988492e-10
8.456138415e-10
1.120470149e-09
-1.481225559e-09
-1.729783773e-09
2.374281312e-09
2.821796464e-09
-2.254271184e-09
-3.566043539e-09
2.343292024e-09
3.21135793e-09
-1.86416869e-09
-2.265428351e-09
9.239374576e-10
1.429712724e-09
-7.829122119e-10
-8.931302523e-10
3.338925836e-10
5.664067447e-10
-3.236062477e-10
-3.553872217e-10
1.151146667e-10
2.137405331e-10
-1.260876181e-10
-1.203451748e-10
3.258033158e-11
6.103080206e-11
-3.85914895e-11
-2.692921844e-11
9.104164817e-12
1.332666778e-11
-4.683341692e-12
-1.089759201e-11
2.623338021e-11
6.853154472e-12
-1.534921788e-11
3.087776348e-12
6.155408958e-12
-2.173212261e-12
-1.597722048e-12
2.160672606e-12
4.744474058e-12
-1.079479379e-12
-2.508014222e-12
1.783806174e-12
6.749714776e-11
-1.085888141e-11
-4.411269141e-11
4.162145213e-11
1.671879805e-10
-9.981820752e-11
-1.007395176e-10
1.462527208e-10
1.492447271e-10
-1.588701846e-10
-1.253067864e-10
1.753747443e-10
6.462573138e-10
-3.932722173e-10
-7.556406225e-10
9.065120357e-10
1.392187818e-09
-1.636042025e-09
-2.45141397e-09
2.414262816e-09
4.668235516e-10
-3.389226996e-09
-6.238890998e-09
5.154117563e-09
9.706509718e-09
-8.989233537e-09
-1.603028612e-08
1.55033976e-08
6.368052824e-08
-2.36209429e-08
-1.246607745e-07
1.670032043e-08
1.262691862e-07
8.473278356e-08
-5.197988586e-08
-5.254073082e-08
1.040192479e-08
3.382547405e-08
3.506369043e-08
-3.1399894e-08
-1.305344513e-08
3.2322964e-08
3.679543612e-08
-4.440309852e-08
-2.501467317e-09
7.531765259e-08
6.204997349e-08
-1.335231243e-07
-4.657131292e-09
2.383414883e-07
1.858034634e-07
-4.240567673e-07
-6.248405333e-08
7.500938188e-07
5.894834651e-07
-1.295615692e-06
-4.78638858e-07
1.642075349e-06
-3.423846547e-06
2.167961624e-06
2.612426494e-09
-4.359203135e-09
-2.964972946e-09
2.921859974e-09
2.377823801e-09
-5.120682765e-09
-3.145653234e-09
3.112357586e-09
3.176193483e-09
-5.11769818e-09
-2.916766891e-09
2.644593162e-09
2.602851798e-09
-3.003260856e-09
-2.323110081e-09
1.589199729e-09
1.905511557e-09
-1.455584927e-09
-1.374730902e-09
6.812132259e-10
9.139330872e-10
-6.778183793e-10
-6.293672756e-10
3.292670275e-10
4.456162641e-10
-4.225153272e-10
-3.06645409e-10
1.468641151e-10
1.953271377e-10
-2.666157224e-10
-1.109007967e-10
3.695513358e-11
5.58312923e-11
-9.429489841e-11
-2.262270769e-11
2.546263472e-12
5.854212886e-12
-6.410913082e-12
-1.877423028e-12
4.921503467e-12
7.10382356e-13
-1.182234176e-12
-9.595886301e-15
2.93681754e-13
-1.00556826e-13
-1.797068307e-13
8.84262015e-14
1.652523239e-12
-1.27637245e-13
-1.163672619e-12
7.772069371e-13
2.611047539e-11
-4.713092213e-12
-1.33695789e-11
1.707204091e-11
5.826955833e-11
-4.127940464e-11
-4.041071751e-11
6.570706375e-11
1.378369697e-10
-1.160901767e-10
-1.873383482e-10
1.745248442e-10
6.958600834e-10
-4.672279482e-10
-5.327980009e-10
1.498577916e-09
3.267551747e-09
-3.96422754e-09
-3.311086493e-09
8.969228225e-09
1.184999837e-08
-1.678532397e-08
-1.885421716e-08
2.401651464e-08
2.357177073e-08
-2.773029438e-08
-3.676080688e-08
2.88637938e-08
2.249977286e-07
-9.514099848e-09
-2.242580381e-07
-2.463295354e-07
-2.423236428e-08
2.306604902e-07
1.21010262e-07
-2.155960276e-07
-9.419421727e-08
2.18484008e-07
1.817482561e-07
-2.500588267e-07
-1.098362598e-07
3.3053677e-07
2.415767262e-07
-4.603232717e-07
-2.231638165e-07
6.462824992e-07
4.572237744e-07
-8.978314121e-07
-5.229006514e-07
1.221006392e-06
8.747182714e-07
-1.610873764e-06
-1.143378719e-06
2.040870478e-06
1.489967139e-06
-2.451348335e-06
-2.030187333e-06
2.03832743e-06
-2.850032159e-06
2.75097983e-06
7.243283007e-09
7.475047251e-09
-1.080096039e-08
-7.651559047e-09
8.539811252e-09
7.670814736e-09
-1.122855281e-08
-6.688574041e-09
6.209204398e-09
4.963378529e-09
-5.870359866e-09
-3.276226632e-09
2.893326729e-09
2.141476679e-09
-2.224158331e-09
-1.545767764e-09
1.400136029e-09
1.247117935e-09
-1.300125111e-09
-1.067470963e-09
7.764378652e-10
8.533184557e-10
-9.84661041e-10
-7.667708741e-10
6.287138714e-10
7.335293437e-10
-1.154749991e-09
-6.837982802e-10
5.148333975e-10
5.947002138e-10
-1.025634518e-09
-4.436386518e-10
2.228777254e-10
2.760798124e-10
-5.036378642e-10
-1.193245757e-10
2.068578887e-11
2.880472535e-11
-6.364291798e-11
-1.975383246e-13
2.043783116e-13
8.531093932e-14
-4.04454345e-14
-3.323540044e-15
1.555627628e-13
-2.712918307e-14
-1.509240393e-13
5.379093273e-14
7.908438442e-13
-1.221303767e-13
-4.935300276e-13
4.429336815e-13
5.722688954e-12
-1.443936913e-12
-2.013942905e-12
3.955639757e-12
5.121404195e-11
-8.744587069e-12
-1.051902916e-10
6.49580485e-11
2.669642688e-10
-2.723750709e-10
-3.907718002e-10
3.923335167e-10
3.276011814e-10
-4.868845392e-10
-1.396207116e-10
1.086443052e-09
3.033055717e-09
-3.47466981e-09
-4.585259568e-09
1.293078558e-08
2.516790823e-08
-3.647785284e-08
-3.101308264e-08
6.570270198e-08
5.420236516e-08
-7.230475054e-08
-6.463845901e-08
2.353481867e-08
7.699814763e-08
5.223110705e-07
9.289093498e-08
-6.254138863e-07
-2.502245692e-07
6.231544184e-07
4.115426355e-07
-6.059305498e-07
-3.034381593e-07
5.905395611e-07
4.457509185e-07
-6.568694599e-07
-4.042232229e-07
7.896634201e-07
5.557486267e-07
-9.631450075e-07
-6.811064789e-07
1.157772879e-06
8.284763169e-07
-1.351219942e-06
-1.085447157e-06
1.51340182e-06
1.116381442e-06
-1.603262967e-06
-1.454723693e-06
1.571064766e-06
1.194346596e-06
-1.369197662e-06
-1.315961463e-06
9.773942291e-07
7.538763159e-07
-4.501139896e-07
1.581165872e-11
-6.138439226e-11
8.132428301e-11
1.085467359e-08
1.455220929e-08
-1.703462588e-08
-1.153806987e-08
1.221572843e-08
9.808055534e-09
-1.13223041e-08
-6.581213024e-09
4.499652808e-09
3.482909214e-09
-2.834062084e-09
-1.639782708e-09
1.379425881e-09
9.414254033e-10
-7.273357363e-10
-7.613831527e-10
1.108532878e-09
7.407132313e-10
-8.195497622e-10
-7.088928914e-10
1.538339873e-09
5.684709861e-10
-3.871183048e-09
-2.090478762e-10
3.470711067e-09
-3.472973191e-10
-1.268562097e-08
4.427987968e-10
2.492914926e-09
4.675173384e-11
-8.877548156e-09
-5.429658578e-10
1.110486344e-09
7.559565597e-10
-2.683205877e-09
-5.604970961e-10
1.669167953e-10
1.70836686e-10
-3.910656406e-10
-3.54997466e-14
2.10303643e-14
2.213929428e-14
-1.45129764e-14
-5.62343597e-15
1.152141142e-13
-9.912519749e-15
-6.512648015e-14
2.922345392e-14
3.005865549e-13
-1.324979379e-13
-1.034956314e-13
1.90794445e-13
5.837016244e-13
-2.791991413e-13
-1.335210317e-13
4.376248518e-13
2.008302434e-10
-4.840659475e-12
-3.820340631e-10
1.483650417e-10
8.935106315e-10
-4.627539944e-10
-2.153848811e-09
1.499957897e-09
-7.212577791e-11
-2.265839559e-09
1.754087873e-09
7.804896696e-09
1.522708011e-08
-2.549390766e-08
-2.498060971e-08
3.329159135e-08
3.279767165e-08
-3.28055934e-08
-3.667466634e-08
3.487232844e-08
6.233434904e-08
-3.801023182e-08
-5.62108999e-08
-7.868504694e-08
-2.330609998e-07
9.993983982e-07
3.52217426e-07
-1.142420993e-06
-5.928460698e-07
1.200271609e-06
7.771886867e-07
-1.148773531e-06
-5.938726609e-07
1.019806627e-06
7.424779208e-07
-9.719803328e-07
-6.654558253e-07
1.012655466e-06
7.267140577e-07
-1.085837662e-06
-8.769133047e-07
1.145184126e-06
8.413216676e-07
-1.159738416e-06
-1.010082237e-06
1.109020679e-06
8.353932611e-07
-9.820322616e-07
-8.755357018e-07
7.821878182e-07
5.95934207e-07
-5.340532577e-07
-4.056082689e-07
2.852119373e-07
2.049176332e-07
-9.427500649e-08
2.288634231e-10
-2.359033446e-09
3.947897406e-09
1.098114712e-08
-1.305161772e-08
-1.374529458e-08
1.460705914e-08
1.754751104e-08
-1.693739703e-08
-1.258125299e-08
9.084889616e-09
8.544243296e-09
-6.400607101e-09
-4.231009771e-09
1.472455953e-09
1.39029167e-09
-6.465190641e-10
-4.396897998e-10
3.8454175e-10
2.785192237e-10
-2.995041918e-10
-2.674672825e-10
6.070033245e-10
2.350967709e-10
-1.37778379e-09
2.088895066e-10
1.17809859e-08
-2.254145696e-09
-2.759640547e-08
7.148918452e-09
3.426380739e-08
-1.445633343e-08
-6.614645973e-08
2.085892362e-08
3.130915808e-08
-2.345950618e-08
-7.69483478e-08
2.001394911e-08
9.614442319e-09
-9.795210013e-09
-3.744785616e-08
-4.529810127e-10
8.764643175e-10
5.198448524e-10
-2.325758936e-09
-2.680811412e-14
1.101171385e-14
1.255900486e-14
-7.049021848e-15
-6.158775503e-15
3.199403302e-14
-7.213722937e-15
-1.320435606e-14
1.283101717e-14
2.937794286e-14
-2.026196347e-14
-8.019543777e-15
2.198272273e-14
2.893371399e-14
-2.336664339e-14
-6.785842384e-15
2.573792807e-14
7.305995903e-10
-8.104821879e-11
-2.053631582e-09
7.858024166e-10
5.262719842e-09
-2.796514112e-09
-9.476139995e-09
6.103366893e-09
1.240700468e-08
-1.525673126e-08
-2.35557211e-08
2.192920094e-08
3.369273799e-08
-2.723758251e-08
-4.061737917e-08
3.125178701e-08
3.842166892e-08
-3.289881366e-08
-4.016769143e-08
3.359289528e-08
4.616118656e-08
-3.797510094e-08
-3.910615708e-08
8.114495626e-09
-4.790748447e-07
1.10904766e-06
6.352212191e-07
-1.44654429e-06
-9.514007449e-07
1.605101381e-06
1.064187246e-06
-1.678942157e-06
-8.931183889e-07
1.523905386e-06
1.032967325e-06
-1.299746283e-06
-7.563635137e-07
1.121436281e-06
7.842433271e-07
-1.005031138e-06
-7.554607533e-07
9.097435333e-07
6.560059215e-07
-8.011156546e-07
-6.492587068e-07
6.6670766e-07
4.845085165e-07
-5.117718695e-07
-3.870095111e-07
3.536459289e-07
2.441124111e-07
-2.155484794e-07
-1.067530715e-07
1.180882007e-07
6.099168355e-08
-6.762270722e-08
-1.007824188e-08
3.11338436e-08
-4.031886044e-08
4.744382014e-08
1.411555654e-08
-1.37449122e-08
-1.617582184e-08
1.601100198e-08
1.560037339e-08
-1.425555971e-08
-1.206566073e-08
4.162393071e-09
6.467913077e-09
-3.241333332e-09
-2.029127736e-09
2.756543162e-10
4.377278616e-10
-1.540092768e-10
-2.658806377e-10
3.589565293e-10
3.35847201e-10
-4.135857695e-10
-3.890394658e-10
4.429376276e-09
-6.270044042e-11
-1.018684467e-08
3.21726237e-09
4.760857998e-08
-1.270374308e-08
-6.694512571e-08
2.892443892e-08
1.028344533e-07
-4.815442434e-08
-1.408213687e-07
6.791754626e-08
1.38215184e-07
-8.4704455e-08
-2.095302635e-07
9.289565917e-08
9.925881174e-08
-8.909136916e-08
-1.776441778e-07
6.493552908e-08
1.075894578e-08
-2.404228638e-08
-5.00950632e-08
-1.517445531e-12
1.897986772e-15
1.20941394e-15
1.531853558e-16
-7.749946395e-16
4.736340252e-15
-3.678887535e-15
-4.109159571e-18
4.416227794e-15
-1.848788823e-15
-5.674585794e-15
2.80201619e-15
7.227161456e-15
1.815026331e-15
-7.527694869e-15
1.716629067e-15
5.119116208e-15
6.476461021e-09
-2.919036397e-09
-1.529674316e-08
7.988238464e-09
1.640157689e-08
-1.276680079e-08
-2.580189852e-08
1.793040609e-08
3.148611767e-08
-2.380983536e-08
-3.926682217e-08
3.034082992e-08
4.589729722e-08
-3.655460166e-08
-4.990427991e-08
3.979104026e-08
4.3040712e-08
-3.917268554e-08
-4.642297871e-08
3.661101891e-08
3.6800372e-08
-3.550247889e-08
-3.838340502e-08
3.759020309e-08
-6.908911454e-07
3.041239757e-08
1.072313966e-07
-1.046102791e-06
-1.020183438e-06
1.269607697e-06
9.399113904e-07
-1.459525973e-06
-1.124816844e-06
1.521059781e-06
1.117379367e-06
-1.392424339e-06
-8.263150123e-07
1.188335241e-06
8.513904374e-07
-9.604015793e-07
-5.737446882e-07
7.483686187e-07
5.186918264e-07
-5.627228964e-07
-3.569893445e-07
4.01363854e-07
2.710002009e-07
-2.650338495e-07
-1.523272996e-07
1.580817877e-07
1.003737997e-07
-8.338578179e-08
-3.882374626e-08
3.742745024e-08
2.107922354e-08
-3.319656949e-09
-5.266637194e-08
3.398201333e-09
-4.713642637e-08
1.039409089e-08
1.237845056e-08
-1.090721369e-08
-1.035550947e-08
1.162456743e-08
1.34723054e-08
-1.245020898e-08
-9.500736954e-09
4.470943519e-09
5.853400144e-09
-6.675889163e-09
-1.776660442e-09
9.990154893e-11
4.499537269e-10
2.585538518e-11
-4.998780899e-10
2.943791476e-10
5.811173975e-10
-1.070229107e-10
-5.12971335e-10
1.787849146e-08
-2.946775163e-09
-2.588829173e-08
1.372463563e-08
8.302607176e-08
-3.514970332e-08
-9.591455632e-08
6.56609618e-08
1.770796862e-07
-1.02136195e-07
-2.071684441e-07
1.432595604e-07
2.858774999e-07
-1.850004633e-07
-3.550194296e-07
2.167873236e-07
2.668890112e-07
-2.285913346e-07
-3.660533358e-07
2.188216547e-07
1.23964957e-07
-1.808165453e-07
-2.156310686e-07
1.142180544e-07
-3.70948822e-14
-4.016914003e-08
-2.51949319e-08
2.142675856e-10
-1.310933137e-14
-1.31893819e-13
1.643548042e-13
7.250700981e-14
-1.486692581e-14
-1.75577383e-13
2.29525421e-13
2.945812771e-13
-4.132433389e-14
-2.372855239e-09
1.544168156e-09
2.158440565e-09
2.278890591e-08
-1.713710738e-08
-2.379410174e-08
2.798409925e-08
3.396821513e-08
-3.15059423e-08
-3.602896353e-08
3.56693017e-08
4.576943328e-08
-4.006900895e-08
-4.93107632e-08
4.308984216e-08
5.2213149e-08
-4.427981201e-08
-5.229212313e-08
4.355589545e-08
4.819565155e-08
-4.144688546e-08
-4.672137903e-08
3.871083289e-08
3.86901452e-08
-3.567401606e-08
-3.593877904e-08
3.242255045e-08
2.850186398e-08
-3.1148614e-08
-2.957618698e-08
2.970195049e-08
-7.635006884e-07
9.234479622e-08
-6.485655785e-09
-8.351041451e-07
-9.984803303e-07
8.065960246e-07
7.335309829e-07
-7.692226002e-07
-8.048163443e-07
7.203910063e-07
6.775427205e-07
-6.06210205e-07
-4.665321793e-07
4.641581395e-07
3.918401128e-07
-3.258458077e-07
-2.145932498e-07
2.091240729e-07
1.671381262e-07
-1.204858331e-07
-7.125270906e-08
5.990382569e-08
4.785960428e-08
-2.297959572e-08
1.200772469e-11
7.386471912e-10
-8.445482459e-10
3.04340608e-10
9.484913315e-10
-5.737833158e-10
3.895458379e-10
-3.909884631e-10
1.022470709e-08
-8.812464877e-09
-5.333239459e-10
1.826580095e-09
1.063963176e-08
-9.659618438e-09
-3.190503788e-09
5.56534604e-09
2.830656566e-09
-2.448181544e-09
-3.364528331e-09
-4.160570847e-10
1.781805897e-09
5.141750655e-10
-1.057600056e-09
1.690863415e-09
7.009776301e-10
-7.85398485e-09
4.401536766e-09
3.343049474e-08
-1.562721077e-08
-4.34645821e-08
3.701970287e-08
1.070806027e-07
-7.012878819e-08
-1.196725714e-07
1.137467047e-07
2.255681301e-07
-1.652213324e-07
-2.308855894e-07
2.239656404e-07
3.980230096e-07
-2.896165326e-07
-4.014629829e-07
3.530055827e-07
4.491998775e-07
-3.955329124e-07
-4.918600349e-07
4.035930007e-07
2.885197851e-07
-3.701965657e-07
-3.411176839e-07
2.968448463e-07
9.433824022e-08
-2.005386513e-07
-1.423643739e-07
9.701339607e-08
-1.45210171e-11
-1.981718139e-08
-5.201026819e-09
1.116083999e-09
-1.140992724e-09
-3.966355575e-09
-4.040533849e-09
1.738222869e-08
-2.290204014e-08
-4.480910992e-08
1.540526002e-08
6.15291761e-08
9.476868645e-09
-2.534867727e-08
-1.147759072e-08
1.589191954e-08
3.124143279e-08
-2.230184834e-08
-3.266183005e-08
3.350906762e-08
4.986990564e-08
-4.236013985e-08
-4.945027461e-08
4.516952082e-08
5.024843828e-08
-4.295440528e-08
-4.669373737e-08
3.875564091e-08
4.258414088e-08
-3.472269198e-08
-3.7636325e-08
3.122715818e-08
3.126575448e-08
-2.766678703e-08
-2.697372538e-08
2.373329233e-08
2.462461862e-08
-2.00313121e-08
-2.323003665e-08
1.756035798e-08
5.693149679e-08
-1.755256272e-08
-5.128411775e-08
1.562690574e-08
-3.069514178e-07
1.863328742e-08
-8.216711414e-09
-1.794590453e-07
-4.724709432e-07
2.48115875e-07
1.798292841e-07
-2.131524299e-07
-2.859881718e-07
1.580555426e-07
1.526790555e-07
-1.035683236e-07
-1.127127901e-07
5.779052858e-08
5.262000801e-08
-2.504227183e-08
-1.869655745e-08
4.515777321e-09
1.398307519e-10
-2.324622416e-10
4.503349131e-10
-1.60086363e-10
-2.020100099e-10
1.725116992e-10
2.949661509e-10
-1.425737085e-10
1.40221831e-10
-1.565597633e-10
6.443251397e-09
1.940135386e-10
-5.393354331e-09
9.147115712e-09
-9.561668387e-09
6.372782784e-09
2.156425193e-10
-4.403973552e-09
-3.976076301e-09
1.546595431e-10
4.596139514e-10
1.635230414e-09
8.646910701e-10
3.449109455e-09
1.307889059e-08
-1.166043223e-08
-2.152454369e-08
2.375418552e-08
5.921442225e-08
-4.478342029e-08
-8.271307606e-08
7.475270019e-08
1.382963827e-07
-1.120756692e-07
-1.64834472e-07
1.538559535e-07
2.312918404e-07
-1.969835614e-07
-2.368943047e-07
2.408066864e-07
3.699644464e-07
-2.900926175e-07
-3.251652787e-07
3.518486255e-07
4.8589878e-07
-4.169654795e-07
-4.388489191e-07
4.555910053e-07
3.555938549e-07
-4.463067978e-07
-3.325333804e-07
3.891051636e-07
1.547709454e-07
-2.965100373e-07
-1.504425124e-07
1.886451995e-07
2.071620336e-08
-9.351747965e-08
-3.39430254e-08
3.20795942e-08
7.485312347e-09
-1.119072074e-08
-9.55930734e-09
9.951218597e-09
1.908602861e-08
-1.920303488e-08
-2.799961792e-08
1.804148704e-08
2.38311713e-08
-2.612868126e-08
-5.428248612e-08
2.73289493e-08
4.114733355e-08
-3.532386038e-08
-5.00972699e-08
4.117526792e-08
4.890529514e-08
-4.205430418e-08
-4.728573946e-08
3.918388455e-08
4.235948636e-08
-3.454290628e-08
-3.796819506e-08
2.966190668e-08
3.287003643e-08
-2.558185337e-08
-2.814870249e-08
2.255579723e-08
2.404056144e-08
-2.005820831e-08
-2.182342649e-08
1.754136903e-08
2.406150482e-08
-1.508044224e-08
-2.673390229e-08
1.324275043e-08
4.218039978e-08
-9.302825683e-09
-3.000629645e-08
-3.87264056e-09
1.160193171e-08
5.95277279e-09
-7.80181058e-09
-4.016556171e-09
6.220509518e-10
2.395294178e-09
-2.568310186e-09
-1.895045156e-09
-3.097444867e-08
3.049480503e-09
-2.105504572e-10
-2.60619051e-09
-6.610084963e-09
6.037111423e-10
-8.315475389e-11
-3.544485104e-11
1.307036072e-10
-2.986220636e-11
-5.226519908e-11
3.505435786e-11
7.823809498e-11
-3.454134175e-11
-2.588700585e-11
3.585177451e-11
6.369360252e-11
-4.423386557e-11
8.560660692e-11
-4.38741067e-11
-1.446190531e-08
8.358935822e-09
-6.042664018e-09
1.455129043e-08
7.366607847e-09
-1.449121185e-08
-6.380474786e-09
1.441208618e-08
2.797620825e-09
-1.431182089e-08
-6.733819019e-09
1.896905719e-08
3.655347936e-08
-3.288703224e-08
-5.981404525e-08
5.751140283e-08
1.136585263e-07
-9.136039147e-08
-1.507303918e-07
1.304362833e-07
1.958679594e-07
-1.693686452e-07
-2.263491788e-07
2.03066971e-07
2.472111226e-07
-2.281524767e-07
-2.548079734e-07
2.439630103e-07
2.867614183e-07
-2.536020797e-07
-2.569297034e-07
2.654348374e-07
3.693892847e-07
-2.910941797e-07
-2.95836333e-07
3.241047843e-07
2.867580085e-07
-3.33755209e-07
-2.307943772e-07
3.045170783e-07
1.268918083e-07
-2.432884228e-07
-9.684040015e-08
1.654436822e-07
3.13732418e-08
-9.101762936e-08
-2.498044354e-08
3.918043736e-08
1.461019475e-08
-1.849979132e-08
-2.045050369e-08
1.575621822e-08
5.063831187e-08
2.082401232e-08
-3.339101596e-08
-1.810829453e-08
7.128697874e-08
-1.151096249e-07
-3.615941329e-08
1.416570821e-07
4.884344248e-08
-6.307988941e-08
-4.317482964e-08
3.955873502e-08
4.447480472e-08