/*--------------------------------*- C++ -*----------------------------------*\
| =========                 |                                                 |
| \\      /  F ield         | OpenFOAM: The Open Source CFD Toolbox           |
|  \\    /   O peration     | Version:  2.1.x                                 |
|   \\  /    A nd           | Web:      www.OpenFOAM.org                      |
|    \\/     M anipulation  |                                                 |
\*---------------------------------------------------------------------------*/
FoamFile
{
    version     2.0;
    format      ascii;
    class       volVectorField;
    location    "1.6";
    object      Uf;
}
// * * * * * * * * * * * * * * * * * * * * * * * * * * * * * * * * * * * * * //

dimensions      [0 1 -1 0 0 0 0];

internalField   nonuniform List<vector> 
2828
(
(-0.1596888319 0 -0.6158292821)
(-0.0800303447 0 -0.6101950662)
(0.08020192961 0 -0.5577156039)
(0.3541120431 0 -0.5382511716)
(0.6737223034 0 -0.5166149322)
(-0.9497358423 0 -0.4099233416)
(-1.006903037 0 -0.3551160448)
(-0.6579458772 0 -0.2638113257)
(-0.275199775 0 -0.5869592566)
(-0.1388771674 0 -0.6804540245)
(-0.04919915201 0 -0.6374358386)
(0.1086705666 0 -0.5605653318)
(0.4220224012 0 -0.4705387154)
(1.027996393 0 -0.6603470144)
(1.87974048 0 -1.837983314)
(1.935382737 0 -1.913382029)
(2.452409605 0 -1.624849174)
(-0.5872111901 0 -0.3709778233)
(-0.7731284553 0 -0.4358240006)
(-0.9798734947 0 -0.4743348971)
(-0.9776931318 0 -0.4135294765)
(-0.7842171895 0 -0.3218791085)
(-0.129453968 0 -0.5946587888)
(-0.002927947495 0 -0.7277074453)
(0.05999676797 0 -0.7381967075)
(0.2191910887 0 -0.7533719832)
(0.7962199131 0 -0.8809311877)
(1.833092762 0 -1.490884148)
(2.134360907 0 -1.756694694)
(2.280563404 0 -1.747639973)
(2.278237956 0 -1.543571017)
(1.680815146 0 -1.661843664)
(0.8136317905 0 -1.761528634)
(-0.4254642972 0 -0.2947329796)
(-0.6199908206 0 -0.4312941943)
(-0.8097435151 0 -0.513352954)
(-0.9156833685 0 -0.5298118141)
(-1.080044222 0 -0.5139178368)
(-1.063613432 0 -0.4659733208)
(0.08875987294 0 -0.6608775507)
(0.2250636982 0 -0.815313138)
(0.3250253631 0 -0.8358992973)
(0.5054930193 0 -0.8649377143)
(1.040644364 0 -1.040592247)
(1.95092853 0 -1.521855162)
(2.209979937 0 -1.669004519)
(2.259114282 0 -1.559827896)
(2.067324766 0 -1.298114703)
(1.315586676 0 -1.145661892)
(0.3993276713 0 -0.7916935758)
(-0.3537390693 0 0.2878352526)
(0.1563861958 0 0.4180922774)
(-0.3741871923 0 -0.3102148755)
(-0.5124089372 0 -0.4268944767)
(-0.680976807 0 -0.5635571436)
(-0.8128165538 0 -0.6312451405)
(-0.832931221 0 -0.5746959452)
(-1.22783858 0 -0.6590815894)
(-1.269392642 0 -0.5913695602)
(0.2230869206 0 -0.7120237168)
(0.4343268705 0 -0.865433183)
(0.4966165845 0 -0.9236775098)
(0.6014323074 0 -1.027303559)
(0.9112195642 0 -1.06363404)
(1.548896636 0 -1.205958186)
(2.078468621 0 -1.44325552)
(2.193815557 0 -1.365995463)
(1.893914998 0 -1.033997131)
(0.9722307173 0 -0.6523611895)
(0.1740840439 0 -0.03897061919)
(0.2196292049 0 0.3900019152)
(-0.3434767701 0 0.3638146862)
(-0.8050824712 0 0.4197682296)
(-0.3434918255 0 -0.3453900049)
(-0.4461304118 0 -0.4516164637)
(-0.6123629604 0 -0.6618884819)
(-0.7291011842 0 -0.7787614978)
(-0.7542542056 0 -0.7641866288)
(-0.8231282201 0 -0.7052523781)
(-1.341097726 0 -0.8394831255)
(-1.048616413 0 -0.7911124995)
(0.3411218909 0 -0.950568518)
(0.4536302464 0 -0.9303317232)
(0.2910987583 0 -0.9169930666)
(0.806950403 0 -1.093074888)
(1.107293813 0 -1.071490891)
(1.401367893 0 -1.036571066)
(1.715565047 0 -1.035191168)
(1.940061607 0 -1.014884746)
(1.711655622 0 -0.8663951812)
(0.05851684148 0 0.4690256586)
(0.3290683584 0 0.344236592)
(0.2665566185 0 0.4107245909)
(-0.652003473 0 0.3698068965)
(-0.8570640669 0 0.1868580804)
(-0.726900491 0 0.1576985607)
(-0.3190028165 0 -0.384057539)
(-0.4011410811 0 -0.4974152087)
(-0.5828202694 0 -0.8234138461)
(-0.6918550615 0 -1.007372045)
(-0.7208541136 0 -1.02572508)
(-0.7030623921 0 -0.9329624365)
(-0.8445195036 0 -0.9571993284)
(-1.351761304 0 -1.07054221)
(-2.341599995 0 -1.06762468)
(-1.33534912 0 -0.5962212837)
(-1.131943104 0 0.105848909)
(-0.05700038435 0 -0.8458111889)
(0.7910504277 0 -1.316378772)
(1.292565781 0 -0.8203287261)
(1.179086792 0 -0.777539736)
(1.521172732 0 -0.7919757829)
(1.66851233 0 -0.5854168396)
(1.538345012 0 -0.388070859)
(0.9546434238 0 0.03690786806)
(0.6706516199 0 0.4386867045)
(-0.6253496265 0 0.1153391734)
(-0.7524278034 0 0.1191457971)
(-0.6976752013 0 0.0527196829)
(-0.5831714335 0 0.1225718832)
(-0.3002691435 0 -0.3954381288)
(-0.3244373807 0 -0.431626742)
(-0.5191878409 0 -0.8506236198)
(-0.6502479166 0 -1.156523514)
(-0.6744102944 0 -1.225615475)
(-0.6431784615 0 -1.128967016)
(-0.7130163036 0 -1.139227938)
(-0.9146356507 0 -1.24586283)
(-1.330066746 0 -1.387702427)
(-2.457623542 0 -1.457297615)
(-1.114768674 0 -0.03755933684)
(-1.406669002 0 0.1297613479)
(-1.854759625 0 1.228491098)
(-1.712247031 0 1.605379456)
(-1.566297629 0 1.499954755)
(1.337411597 0 -0.885292388)
(1.31328142 0 -0.6709198168)
(1.382841663 0 -0.3638110004)
(1.274420657 0 -0.03021320573)
(0.7615317641 0 0.2068244667)
(0.1110626623 0 0.4521457796)
(-0.7591873816 0 -0.006119804042)
(-0.5963752461 0 -0.08927792927)
(-0.4540840582 0 -0.004966008319)
(-0.3934071016 0 0.0878655772)
(-0.3351064493 0 0.1285778865)
(-0.2759907865 0 -0.3877946362)
(-0.3124520276 0 -0.4670524836)
(-0.496088761 0 -0.865803567)
(-0.5891502172 0 -1.084566227)
(-0.5699197028 0 -1.11698144)
(-0.5777354302 0 -1.167585197)
(-0.7016411472 0 -1.330598676)
(-0.9299140559 0 -1.496165852)
(-1.247189317 0 -1.489737717)
(-1.621595916 0 -1.662431304)
(-1.60828292 0 0.1163101256)
(-0.8800848561 0 0.2256496874)
(-0.5605356223 0 0.2842224063)
(-0.4977044835 0 0.3179436049)
(-0.7026440912 0 0.5266107224)
(-0.9183875694 0 0.8549508169)
(1.091390058 0 -0.5679252041)
(1.219651346 0 -0.3765038763)
(1.059540088 0 0.4058046438)
(-0.1224174202 0 1.089076427)
(-1.026432104 0 -0.1904813939)
(-0.4988581406 0 -0.1418871144)
(-0.2314585009 0 -0.1752373767)
(-0.04558104085 0 -0.1189390903)
(0.2153711077 0 0.09413109492)
(2.162776535 0 -0.5175741683)
(4.124704378 0 -1.256044258)
(-0.2640322143 0 -0.3872828985)
(-0.2410728066 0 -0.3647425947)
(-0.2596018276 0 -0.3540446507)
(-0.3770540533 0 -0.5423366196)
(-0.4797904219 0 -0.7338210784)
(-0.4917617489 0 -0.8019207147)
(-0.5112479489 0 -0.9438578355)
(-0.6217690641 0 -1.308587629)
(-0.7593456368 0 -1.588559025)
(-0.8415274132 0 -1.240982221)
(-0.2892117024 0 0.03853827772)
(-0.8070428218 0 0.08236095177)
(-1.246438595 0 0.4598065632)
(-0.6404092927 0 0.3916290851)
(-0.5635673458 0 0.3847823718)
(-1.265794362 0 1.145189233)
(-1.135432165 0 1.482278594)
(-0.910470114 0 1.536844719)
(-0.8963738641 0 1.4073684)
(-1.088962737 0 1.382054218)
(-0.9021911985 0 0.8897141709)
(-0.430037728 0 -0.5119317377)
(0.03440014196 0 -0.5051030508)
(1.240542002 0 -1.832391357)
(2.332327882 0 -3.113837003)
(2.594568578 0 -3.395747206)
(2.827443022 0 -3.633920933)
(3.026682073 0 -4.048250744)
(-0.2830298695 0 -0.3525976541)
(-0.3214340262 0 -0.3573079689)
(-0.395147575 0 -0.3557626476)
(-0.3829559741 0 -0.3774626325)
(-0.3911001299 0 -0.5344463493)
(-0.4314690565 0 -0.6186255491)
(-0.4933998206 0 -0.6931208068)
(-0.6115985522 0 -0.8233860021)
(-0.7801829088 0 -0.9843411886)
(-0.4099298926 0 -0.1063007195)
(-0.4306545286 0 -0.03067465404)
(-3.234878968 0 0.4697607314)
(-1.174890455 0 0.6379557911)
(-0.6981806704 0 0.4598641243)
(-0.6482662085 0 0.4592191806)
(-2.189489964 0 2.480269463)
(-1.172555751 0 2.482171296)
(-0.9503625034 0 2.677982309)
(-0.8841176412 0 2.027300119)
(-0.959200042 0 1.352246697)
(-0.6759495746 0 -0.6100691847)
(0.3249383115 0 -0.99716275)
(1.434478285 0 -2.302243204)
(2.235081779 0 -3.306791926)
(2.495152556 0 -3.620964013)
(2.679979921 0 -3.823194134)
(2.872768503 0 -4.010970078)
(3.043549156 0 -4.178544518)
(-0.3326332181 0 -0.3131117534)
(-0.423156124 0 -0.3737041604)
(-0.4994763522 0 -0.3818988766)
(-0.4628846617 0 -0.3054778936)
(-0.3131985141 0 -0.3058689344)
(-0.3205941369 0 -0.4163378926)
(-0.3759145168 0 -0.5034298604)
(-0.4932408866 0 -0.6874035831)
(-0.8080908181 0 -1.121525818)
(-0.6956337871 0 -0.395648594)
(-0.6842444831 0 -0.1151967392)
(-4.486759854 0 1.141722378)
(-1.096556411 0 0.6728761132)
(-0.7764977583 0 0.5307629516)
(-0.7556167075 0 0.5407392208)
(-1.778197248 0 2.566691083)
(-0.8829175997 0 3.30681984)
(-0.6332931587 0 3.312540516)
(-0.794099949 0 2.480408977)
(-0.9192920027 0 1.433013712)
(0.04072456259 0 -1.319001394)
(0.9495593026 0 -1.770426422)
(1.997625418 0 -3.022223775)
(2.392050467 0 -3.504964244)
(2.581042236 0 -3.665631376)
(2.764796759 0 -3.794104751)
(2.938304509 0 -3.896322236)
(3.068288932 0 -3.973481488)
(-0.4992200874 0 0.2816208855)
(-0.351093117 0 -0.3073190631)
(-0.4232211911 0 -0.3678084379)
(-0.5142791834 0 -0.4133157706)
(-0.4975273338 0 -0.3004690295)
(-0.3011093218 0 -0.1767561604)
(-0.3036966584 0 -0.07843439165)
(-0.4328888706 0 0.06480702877)
(-0.3519732171 0 -0.04511116298)
(-0.3915291102 0 -0.5077785707)
(-1.126098085 0 -1.253979078)
(-0.9093351786 0 -0.363703147)
(-1.211912772 0 0.3814552383)
(-1.046053233 0 0.6499668029)
(-0.9108351263 0 0.6585050931)
(-1.157478525 0 0.7292267068)
(-0.509384605 0 0.6091596309)
(0.9156548151 0 2.063184177)
(-0.4289320097 0 1.037153122)
(-0.9333049456 0 0.8386042825)
(-1.03416737 0 0.9656258989)
(0.4160964963 0 -1.488694335)
(1.157843648 0 -1.992380478)
(2.092257951 0 -3.063534919)
(2.47598737 0 -3.494350534)
(2.622076035 0 -3.580196494)
(2.764828889 0 -3.665265527)
(2.880338039 0 -3.742331489)
(2.930150942 0 -3.781762796)
(-0.004827165859 0 -0.4032903841)
(-0.2531327339 0 -0.2258654107)
(-0.3258319434 0 -0.3022967677)
(-0.3464188637 0 -0.3752868119)
(-0.4522727911 0 -0.4651636454)
(-0.5463484042 0 -0.3439555375)
(-0.3225248976 0 -0.02725628532)
(-0.6981652763 0 0.3209805047)
(-0.8184105672 0 0.4372191062)
(-0.7028814599 0 0.4240505262)
(-0.4237384047 0 0.1089245321)
(-0.5694876506 0 -0.7052832957)
(-0.9810851008 0 -0.6273143723)
(-1.178990195 0 0.678440148)
(-1.194184594 0 0.8346326498)
(-1.105468007 0 0.9371160478)
(-0.416283358 0 0.5175180122)
(-0.5665087654 0 0.6028955407)
(-0.6994870483 0 0.7070466034)
(-0.8912313419 0 0.7517406132)
(-1.014161895 0 0.8373332226)
(-1.165805885 0 1.198198705)
(0.6264705396 0 -1.58719398)
(1.121559421 0 -1.815886354)
(1.731129955 0 -2.579311542)
(2.342102454 0 -3.262222862)
(2.540811314 0 -3.398864855)
(2.601070468 0 -3.41139216)
(2.490959779 0 -3.251544666)
(1.599780527 0 -2.120156402)
(0.3839011036 0 -0.4707311516)
(-0.2350208725 0 -0.2020014887)
(-0.2492553291 0 -0.2799895137)
(-0.2127988936 0 -0.433899565)
(-0.3235072943 0 -0.5792443193)
(-0.6436301734 0 -0.5533955277)
(-0.6163975963 0 0.3619763243)
(-0.9314102735 0 0.4927605557)
(-1.028639654 0 0.6400764198)
(-0.9753902657 0 0.6413693638)
(-0.7526890328 0 0.5242472257)
(-0.4576182396 0 0.2034912778)
(-0.5260858245 0 -0.03948545621)
(-0.7250302485 0 0.5250096674)
(0.9479504563 0 2.332846197)
(-0.1591141612 0 2.983339837)
(-0.6025920204 0 0.7075261385)
(-0.6762476236 0 0.6872610598)
(-0.8288307543 0 0.7583241427)
(-0.9747282072 0 0.8127935898)
(-1.063808815 0 0.8716572664)
(-1.099541642 0 1.038872855)
(0.88867907 0 -1.135049094)
(0.879892433 0 -1.263494045)
(1.32236795 0 -1.803336642)
(1.704404936 0 -2.331909001)
(2.004618876 0 -2.668349318)
(2.005932982 0 -2.602376694)
(1.629639046 0 -2.044831612)
(0.7935810953 0 -0.6764650703)
(0.4683147085 0 -0.4158263788)
(-0.1941064502 0 -0.1304010448)
(-0.1862282349 0 -0.1823705873)
(-0.1914660945 0 -0.2774752531)
(-0.08259687461 0 -0.8267482511)
(-0.221405899 0 -0.486837486)
(-0.7643897254 0 0.5078403322)
(-1.053665847 0 0.7432941479)
(-1.210790083 0 0.9361330921)
(-1.190211956 0 0.8950438944)
(-0.9560552721 0 0.7560073339)
(-0.7710549018 0 0.6847806858)
(-0.1766166064 0 0.2772399788)
(0.6671091226 0 0.2454917253)
(0.6245602977 0 0.6349845743)
(0.5576006732 0 1.11506118)
(-0.6433876955 0 0.8451751343)
(-0.8293912231 0 0.810334952)
(-0.9770427734 0 0.8758513809)
(-1.10852493 0 0.8916387464)
(-1.157034186 0 0.9033139921)
(-1.122649416 0 0.9265444574)
(-1.264140472 0 1.124796874)
(0.7823528776 0 -1.08860663)
(1.092722027 0 -1.078568996)
(1.288710352 0 -1.389255268)
(1.373353554 0 -1.551504934)
(1.295940671 0 -1.433713678)
(0.98843102 0 -0.9454886348)
(-0.4447705883 0 0.07856153165)
(-0.3483531705 0 0.1616084432)
(-0.21603143 0 -0.0317109916)
(-0.1543814558 0 -0.05251887493)
(-0.08190051789 0 -0.06809141724)
(0.2250677858 0 -0.3968240642)
(-0.3376375707 0 0.1229551508)
(-0.9552431941 0 0.8745545189)
(-1.370589033 0 1.27984757)
(-1.571674835 0 1.471013176)
(-1.477752601 0 1.310979457)
(-1.182795199 0 1.052430945)
(-0.8968774663 0 0.9230565801)
(-0.7240666049 0 0.7817812995)
(-0.08665059469 0 0.3322708308)
(-0.1635427726 0 0.3327695265)
(0.720272974 0 0.9933408392)
(-0.6989889543 0 0.6362902245)
(-0.9449723723 0 0.9630743762)
(-1.116576413 0 0.9948464879)
(-1.241282011 0 0.9466282017)
(-1.24388526 0 0.9055445035)
(-1.156152419 0 0.8781621778)
(-1.008931156 0 0.8310651874)
(-0.9252195079 0 0.3754175909)
(0.1062697675 0 -0.5303604333)
(1.028340082 0 -1.00870761)
(1.075227026 0 -0.9735205298)
(0.9458220257 0 -0.8490410642)
(0.3533895598 0 -0.3799011415)
(-0.3031860189 0 0.1107012987)
(-0.2718265472 0 0.1296874986)
(-0.1685394753 0 0.0376065888)
(-0.1700420635 0 0.1171508099)
(-0.01378427123 0 0.02727636102)
(0.02476446161 0 -0.04132088691)
(-0.5232064935 0 0.6036213155)
(-1.484421416 0 1.5307973)
(-2.007404106 0 1.99644799)
(-2.166673759 0 2.124898708)
(-1.951773958 0 1.872691101)
(-1.402292295 0 1.338711756)
(-0.9682531635 0 1.082166395)
(-0.7189288725 0 0.9273329159)
(-0.454346098 0 0.6486530878)
(-0.270957572 0 0.3401239039)
(-0.6002686239 0 0.3016214207)
(-0.7524816491 0 0.7815110853)
(-0.9897168064 0 0.9527528232)
(-1.236803021 0 0.9742983541)
(-1.315060638 0 0.9230357251)
(-1.258551933 0 0.8754424611)
(-1.115872322 0 0.8363300431)
(-0.8970879603 0 0.6815595431)
(-0.5951871998 0 0.04422254121)
(-0.5474872718 0 -0.3823740409)
(-0.5645500158 0 -0.3572010125)
(0.1403275939 0 -0.4932158379)
(-0.0808253433 0 -0.1869153496)
(-0.2988130614 0 0.06809019328)
(-0.2837985422 0 0.09816479246)
(-0.2405944056 0 0.1484490167)
(-0.1047045657 0 0.2233354704)
(-0.1385083097 0 0.2490510312)
(-0.1725084717 0 0.3560369853)
(-1.29268069 0 1.435385897)
(-2.201636248 0 2.238551714)
(-2.519687228 0 2.48612578)
(-2.544794633 0 2.472966955)
(-2.355554491 0 2.255931534)
(-1.680865748 0 1.561876339)
(-1.011092466 0 1.106716365)
(-0.6811528695 0 0.9486666639)
(-0.5123465108 0 0.7435155907)
(-0.6142905118 0 0.5650004808)
(-0.9145951276 0 -1.283517343)
(-0.9821245834 0 2.66541745)
(-1.334389591 0 1.013902733)
(-1.399923121 0 0.9544582628)
(-1.329049351 0 0.8818144579)
(-1.205620039 0 0.8466618672)
(-1.028782618 0 0.8331559805)
(-0.7887647196 0 0.4250923487)
(-0.4227421873 0 -0.3017252748)
(-0.5615490088 0 -0.5690191238)
(-0.504148531 0 -0.5217936783)
(-0.4012273079 0 -0.4075886076)
(-0.2978622703 0 -0.2060551246)
(-0.3312756677 0 0.02885918511)
(-0.2888138649 0 0.1344487284)
(-0.2184575629 0 0.1920334297)
(-0.00500525313 0 0.3713635854)
(0.002810256679 0 0.3879106118)
(-0.6540088281 0 0.9967227728)
(-2.295499948 0 2.403783537)
(-2.79578336 0 2.79355496)
(-2.838251192 0 2.782340745)
(-2.700379505 0 2.612217058)
(-2.406641311 0 2.288701253)
(-1.79109686 0 1.603979787)
(-0.9719163452 0 0.9339624815)
(-0.5330151978 0 0.7229221533)
(-0.4463294538 0 0.5077288776)
(-0.8900083806 0 0.6885517323)
(-1.251733802 0 0.8997689648)
(-1.446998488 0 0.9941054297)
(-1.497912453 0 1.015750363)
(-1.419545912 0 0.9549685335)
(-1.261279755 0 0.8359851038)
(-1.08641996 0 0.8253949334)
(-0.9056357315 0 0.8782222729)
(-0.6153301488 0 0.1433300162)
(-0.5411701118 0 -0.5641252797)
(-0.5953847241 0 -0.6622211177)
(-0.5917415924 0 -0.6595020824)
(-0.536304843 0 -0.592269577)
(-0.4008589225 0 -0.4334782422)
(-0.3016920556 0 -0.04688693323)
(-0.2393052236 0 0.2034376289)
(-0.09288345736 0 0.2976568068)
(0.1247284536 0 0.2041957102)
(0.1764305257 0 0.3398654582)
(-2.379909737 0 2.55244004)
(-3.113788874 0 3.14394243)
(-3.132883334 0 3.099513488)
(-2.983794964 0 2.908375729)
(-2.723480746 0 2.612427091)
(-2.264445143 0 2.115914673)
(-1.57571793 0 1.35971699)
(-0.8145779885 0 0.6668449761)
(-0.4578804598 0 0.4468001196)
(-0.8244035163 0 0.6058112162)
(-1.255625698 0 0.8752062118)
(-1.49209676 0 1.021109614)
(-1.561104317 0 1.049974634)
(-1.529814158 0 1.030630898)
(-1.378893479 0 0.9776380851)
(-1.125011316 0 0.8099506975)
(-0.8525165949 0 0.803383272)
(-0.7037587669 0 0.9540182355)
(-0.4675063885 0 0.1505639458)
(-0.5245051975 0 -0.6122156293)
(-0.6158423862 0 -0.7011731929)
(-0.6817542039 0 -0.7706542225)
(-0.692029018 0 -0.7714859791)
(-0.6251715368 0 -0.6893023759)
(-0.3826616301 0 -0.4138079146)
(0.1015987208 0 0.2167594684)
(0.07757061881 0 0.425770199)
(-3.397902059 0 3.492488597)
(-3.407304934 0 3.414551554)
(-3.239742239 0 3.185164418)
(-2.983818702 0 2.87211633)
(-2.582536464 0 2.423706977)
(-1.874447655 0 1.681025971)
(-1.198223803 0 0.9588535891)
(-0.9304454689 0 0.6906600594)
(-1.005505228 0 0.7096627318)
(-1.27742061 0 0.8886121088)
(-1.511387785 0 1.043816006)
(-1.614874999 0 1.110479555)
(-1.595813918 0 1.063235383)
(-1.46943655 0 1.022594365)
(-1.256718275 0 1.05347694)
(-0.9125809154 0 0.8054806626)
(-0.5262195122 0 0.7333524124)
(-0.4262217356 0 0.8820733056)
(-0.3732689486 0 0.5797987314)
(-0.4328362441 0 -0.5009279619)
(-0.5768352917 0 -0.6647979845)
(-0.7285708017 0 -0.8360135081)
(-0.8046819036 0 -0.9091337211)
(-0.8287198278 0 -0.921346648)
(-0.728194917 0 -0.7896431018)
(0.0644188487 0 0.0099273016)
(0.2952144662 0 0.4872659178)
(-3.676861363 0 3.764865204)
(-3.473176679 0 3.449069635)
(-3.196539747 0 3.063860252)
(-2.781092669 0 2.565095664)
(-2.077052079 0 1.852567571)
(-1.261899752 0 1.075301802)
(-1.051225118 0 0.8637487749)
(-1.056848002 0 0.8676800645)
(-1.188183426 0 0.9399061529)
(-1.436888308 0 1.063463471)
(-1.624759348 0 1.151327908)
(-1.673704533 0 1.16477694)
(-1.581100287 0 1.060084423)
(-1.242622255 0 0.9921005304)
(-0.9757322045 0 1.09346385)
(-0.709720619 0 0.6930423361)
(-0.3748693303 0 0.5137529959)
(-0.3035379087 0 0.423628362)
(-0.2446212033 0 0.2160560477)
(-0.2891092669 0 -0.2188143136)
(-0.4212194378 0 -0.4769479887)
(-0.7037773293 0 -0.8212608112)
(-0.8531678467 0 -0.9832136686)
(-0.9495508548 0 -1.074954926)
(-0.9976956365 0 -1.093927357)
(-3.630098677 0 3.711477598)
(-3.338505361 0 3.020719085)
(-2.719137211 0 2.26755378)
(-1.880883934 0 1.518720161)
(-1.189442269 0 1.076209892)
(-1.172944075 0 1.09975562)
(-1.197526082 0 1.121851004)
(-1.209576669 0 1.113648081)
(-1.361376489 0 1.141540302)
(-1.599536722 0 1.204348747)
(-1.729329958 0 1.232129013)
(-1.703075181 0 1.189308713)
(-1.520127287 0 1.047594632)
(-0.9241126651 0 0.8487182308)
(-0.6704761163 0 0.7599457381)
(-0.5627495608 0 0.4411733959)
(-0.4718519672 0 0.234670994)
(-0.4177429702 0 0.2496686333)
(-0.3506272757 0 0.2739222148)
(-0.3578070341 0 0.4646773228)
(-0.2585973669 0 0.5903277611)
(-0.5025889113 0 -0.577038577)
(-0.8007209935 0 -0.9436196682)
(-0.9822786032 0 -1.153012782)
(-1.066553695 0 -1.211274161)
(-3.512413124 0 1.611279719)
(-2.281612399 0 1.348836276)
(-1.488945873 0 1.149207907)
(-1.11502692 0 1.033078159)
(-1.27168739 0 1.315505947)
(-1.405699779 0 1.403693138)
(-1.38988454 0 1.385894982)
(-1.398703224 0 1.330276622)
(-1.587552009 0 1.306072347)
(-1.777217536 0 1.309382168)
(-1.809549611 0 1.277248892)
(-1.677340019 0 1.167550765)
(-1.368740143 0 0.9441312981)
(-0.8582013395 0 0.4724211409)
(-0.5782933556 0 0.227742146)
(-0.5064465772 0 0.1743584351)
(-0.5035176626 0 0.2305173865)
(-0.5091557597 0 0.3168486417)
(-0.524838851 0 0.4065933993)
(-0.4421787209 0 0.4620811593)
(0.1766692351 0 1.226435687)
(0.2003184548 0 1.601103619)
(0.1271286916 0 1.505335707)
(0.09677233876 0 1.269461257)
(-1.434015621 0 1.241358526)
(-1.314653954 0 1.184395399)
(-0.7843359012 0 1.246299658)
(-1.568274475 0 1.628856832)
(-1.621182677 0 1.647498924)
(-1.561504344 0 1.589370202)
(-1.630761193 0 1.471587695)
(-1.846898465 0 1.400067727)
(-1.920977206 0 1.361306316)
(-1.826374888 0 1.272537563)
(-1.553823764 0 1.073929363)
(-1.071972737 0 0.7213385718)
(-0.6206086502 0 0.1661333837)
(-0.4841644578 0 0.139964631)
(-0.4939856423 0 0.1608797826)
(-0.5436199477 0 0.2447833565)
(-0.5738334073 0 0.3697928375)
(-0.6018821809 0 0.4808649452)
(-0.5691222442 0 0.548055967)
(0.2274929327 0 0.7250819369)
(1.715636225 0 1.722050984)
(1.957370467 0 2.385809442)
(-0.3068819359 0 -0.05360939146)
(-0.6618700287 0 1.664184029)
(-1.82960907 0 1.855495455)
(-1.804210022 0 1.844758816)
(-1.734188849 0 1.713150061)
(-1.944339292 0 1.490507028)
(-2.044051877 0 1.429525473)
(-1.973948028 0 1.368679916)
(-1.737657721 0 1.202127895)
(-1.264366951 0 0.8585592285)
(-0.7077234529 0 0.4228444772)
(-0.4856468249 0 0.07405923271)
(-0.4539835403 0 0.120331426)
(-0.4965207633 0 0.1297363263)
(-0.5604218226 0 0.2498981524)
(-0.6090203068 0 0.4108896114)
(-0.6467126288 0 0.5300715578)
(-0.6465278396 0 0.6140228425)
(0.03525452334 0 0.7639570704)
(0.366657315 0 1.043417098)
(-2.130125711 0 2.123455707)
(-1.990610506 0 2.017587768)
(-2.053613304 0 1.568479581)
(-2.161330613 0 1.466818462)
(-2.102277376 0 1.446802674)
(-1.931783536 0 1.339880641)
(-1.452565868 0 0.9923676189)
(-0.7835719181 0 0.4891393079)
(-0.5094767682 0 0.2659062368)
(-0.4116412214 0 0.08692028601)
(-0.4425667393 0 0.11831055)
(-0.4951945654 0 0.1037588734)
(-0.5216887396 0 0.2430933671)
(-0.5848795416 0 0.4068527809)
(-0.6538621276 0 0.5336928131)
(-0.6698055781 0 0.6072577237)
(-0.6465644736 0 0.651102371)
(0.01049212187 0 0.6405714858)
(-2.232053924 0 1.503382158)
(-2.198473493 0 1.499042445)
(-2.084954056 0 1.449186196)
(-1.748951488 0 1.218679175)
(-0.7859759121 0 0.4751190629)
(-0.5033638983 0 0.2702284834)
(-0.4694147991 0 0.2653600919)
(-0.3805272005 0 0.1252125499)
(-0.4322898321 0 0.1345428924)
(-0.4868199094 0 0.1330988097)
(-0.5039798827 0 0.2214457076)
(-0.5588206497 0 0.3719603928)
(-0.6369461613 0 0.4998779221)
(0.4298257476 0 0.5341129237)
(0.2022944736 0 -0.2000696402)
(-0.5279791856 0 0.2742154865)
(-0.4827257084 0 0.2645110854)
(-0.4652966617 0 0.2695281598)
(-0.4024287811 0 0.1590806822)
(-0.413528577 0 0.146826249)
(-0.4749007549 0 0.156136517)
(-0.5000986543 0 0.2044802622)
(-0.8684083051 0 -0.2464210835)
(-0.6610221029 0 -0.2404273726)
(-0.4054833176 0 -0.428387199)
(-0.2343495314 0 -0.5970638439)
(-0.1170744711 0 -0.6594325594)
(-0.1347218092 0 -0.6398245146)
(-0.1360903202 0 -0.6504575366)
(-0.08932667488 0 -0.6344714862)
(-0.1230649668 0 -0.6309127936)
(-0.04290435246 0 -0.6139619199)
(0.02552375421 0 -0.5798352072)
(-0.01098048389 0 -0.5871896657)
(0.1149426505 0 -0.5392768182)
(0.2306555336 0 -0.502985388)
(0.20052741 0 -0.5430793933)
(0.3797248234 0 -0.4605794744)
(0.5529269811 0 -0.4588041636)
(0.5441659478 0 -0.5746707283)
(0.7215301645 0 -0.2700810768)
(0.0928358553 0 0.1335729884)
(-0.203704529 0 -0.2182624437)
(-0.3126905455 0 -0.5968928485)
(-0.3242657223 0 -1.493815408)
(-0.7748802722 0 -0.4277428097)
(-0.8547742448 0 -0.423895307)
(-0.9433350915 0 -0.4174321935)
(-1.015978635 0 -0.4337326392)
(-1.025803897 0 -0.402768396)
(-0.968762478 0 -0.3822634651)
(-0.9126325444 0 -0.318004116)
(-0.8937808566 0 -0.2699452041)
(2.239239842 0 -1.827103521)
(2.448704701 0 -1.738233554)
(2.447122707 0 -1.791973668)
(2.383685809 0 -1.610126669)
(2.250401813 0 -1.587336239)
(2.418248945 0 -1.690404216)
(1.813552537 0 -1.861839596)
(1.919876625 0 -2.110355513)
(-0.494829405 0 -0.3226588178)
(-0.5943168681 0 -0.3878128976)
(-0.6980640066 0 -0.4417426298)
(-0.6664241332 0 -0.4109664264)
(0.6484863591 0 -1.310354764)
(0.9487260649 0 -1.497625884)
(0.9781478479 0 -2.046635644)
(-0.3195051481 0 0.4060869675)
(-0.3729420912 0 -0.2978658624)
(-0.3956754412 0 -0.2968373371)
(-0.3923009415 0 -0.278386167)
(-0.4637297897 0 -0.3475999994)
(-0.5562800921 0 -0.4236161673)
(-0.5100414933 0 -0.3498380128)
(0.1572324079 0 0.3709360629)
(0.2305112576 0 0.3401907013)
(0.02812140883 0 0.2359091363)
(0.1077228222 0 0.4295451488)
(-0.3350517868 0 0.4426520519)
(-0.3488063973 0 -0.3370030572)
(-0.3583818649 0 -0.3274568297)
(-0.3606203796 0 -0.3180134914)
(-0.8875834667 0 0.2915672921)
(-0.8831362723 0 0.1992105393)
(-0.3266322264 0 -0.3734415822)
(-0.3284624365 0 -0.3633712084)
(-0.3358819051 0 -0.3551261917)
(-0.6730613807 0 0.1409219157)
(-0.6015833005 0 0.173985684)
(-0.3086092512 0 -0.3853701938)
(-0.3144797812 0 -0.3842229768)
(-0.366825348 0 -0.4784680883)
(-0.3385468521 0 -0.3939344777)
(-0.500135767 0 0.1017190799)
(-0.4770651608 0 0.1451431654)
(-0.5436227751 0 0.1595507624)
(-0.4193043223 0 0.1687139999)
(-0.2903964331 0 -0.3985705339)
(-0.2912464803 0 -0.3892435683)
(-0.2966286496 0 -0.3873726976)
(-0.3176754358 0 0.253063243)
(-0.1900038442 0 0.3328574313)
(-0.1517096744 0 0.1877463744)
(-0.2631547648 0 -0.397894941)
(-0.2795054652 0 -0.3996095777)
(3.796309838 0 -1.210275912)
(-0.2679866555 0 -0.3737680642)
(-0.2565612139 0 -0.3633396572)
(-0.2514152227 0 -0.3822846233)
(3.014673992 0 -4.178328479)
(3.07410724 0 -4.299561422)
(3.137519644 0 -4.374363743)
(-0.3022678588 0 -0.3128839639)
(-0.3041129444 0 -0.3245667661)
(-0.3400141646 0 -0.3477175517)
(-0.2933873859 0 -0.3508241773)
(3.08754801 0 -4.059824929)
(3.161419565 0 -4.050637015)
(3.096356333 0 -4.199139716)
(-0.09804839579 0 1.221432097)
(-0.3024411701 0 -0.2788315583)
(-0.3050182915 0 -0.2953916906)
(-0.2005059787 0 0.07348614504)
(-0.2492156606 0 -0.2264626431)
(-0.2986364098 0 -0.2644502908)
(-0.2996499384 0 -0.262090502)
(0.1395005883 0 -0.6832801164)
(0.1901771242 0 -0.6504599198)
(-0.2496366294 0 -0.2170236251)
(-0.2815657159 0 -0.2675515662)
(-0.2976137447 0 -0.2711463588)
(0.5732197964 0 -0.412613943)
(0.6197890523 0 -0.4623580622)
(0.458694237 0 -0.465207179)
(-0.2169028862 0 -0.1711376594)
(-0.2200720905 0 -0.2190298386)
(-0.2506309427 0 -0.2536914067)
(-0.3633730293 0 0.1240439654)
(0.4770396772 0 -0.3344330875)
(0.6858898798 0 -0.5154062499)
(-0.2061101093 0 -0.07542961341)
(-0.1818956472 0 -0.0768126301)
(-0.1838080621 0 -0.1591287988)
(-0.2958211833 0 0.1397619263)
(-0.2856970267 0 0.1483376666)
(-0.2908916497 0 0.1408113392)
(-0.1899640836 0 0.008389735641)
(-0.1975167903 0 0.0725364959)
(-0.2042731733 0 0.005025732303)
(-0.2549529142 0 0.1316523312)
(-0.2422428837 0 0.1417571357)
(-0.2573643923 0 0.1413275462)
(-0.1568816075 0 0.1661854132)
(-0.1960226251 0 0.1235584124)
(-0.2310005019 0 0.1680865574)
(-0.2337166533 0 0.1493715186)
(-0.0691162285 0 0.3180023086)
(-0.09831822085 0 0.2246830815)
(-0.1961171535 0 0.2251659903)
(-0.01091932828 0 0.3763468265)
(0.05689644241 0 0.31240132)
(0.04780985829 0 0.314051794)
(-0.01256692676 0 0.3587098746)
(0.03167266079 0 0.3035563806)
(0.08377149058 0 0.3245198695)
(-0.1149042107 0 0.2892427221)
(0.1140010061 0 0.1195412919)
(0.08454107395 0 0.2386421813)
(0.1184012642 0 0.2822626913)
(-0.02017391457 0 0.120003106)
(0.08100455401 0 0.1438729279)
(0.09352381896 0 0.2385571163)
(0.2310198337 0 0.5750260617)
(0.07368498238 0 0.4263674263)
(-0.04779371401 0 0.07127870927)
(0.1972600275 0 -0.903329109)
(-3.834662416 0 3.99089381)
(-3.768099288 0 3.898931695)
(-1.055392703 0 -1.165832975)
(-0.8209341945 0 0.5180130088)
(-0.6187343845 0 0.4110897349)
(-3.802158178 0 4.078229703)
(-3.405520993 0 1.608880971)
(-3.315016508 0 1.576227418)
(-3.513341939 0 3.35974945)
(0.06079931613 0 0.8775963258)
(0.4210089851 0 0.8222812795)
(-1.029556974 0 -1.201815383)
(-0.1144673578 0 -0.6868122968)
(-3.390107697 0 1.608672086)
(1.269386809 0 2.181571832)
(0.09009733739 0 1.21694535)
(0.01104948459 0 -0.1626800207)
(-1.381659748 0 1.239437202)
(1.66453426 0 1.969477283)
(1.847328917 0 2.40188712)
(-0.7071595589 0 1.878120898)
(-0.7151308628 0 1.760599305)
(-0.6926736373 0 1.765161471)
(-1.942586081 0 1.921062412)
(-1.708967956 0 1.804047576)
(-0.6004739135 0 0.6629515058)
(-0.5378348037 0 0.675085417)
(0.368933772 0 0.9721254331)
(-0.4836351154 0 0.6389745022)
(0.30708702 0 1.085777086)
(-2.215268381 0 2.097233851)
(0.6612403079 0 0.419908835)
(-0.2705983087 0 -0.1509808991)
(-2.0661558 0 2.083286916)
(-0.6726349366 0 0.5970512808)
(-0.6683687952 0 0.6163421404)
(-0.6649418706 0 0.6349036173)
(-0.1328911053 0 0.1875482601)
(-2.234325668 0 1.52537743)
(-2.218842916 0 1.511116553)
(-2.212635969 0 1.4982208)
(-2.196642806 0 1.508977053)
(-2.140027332 0 1.494357848)
(-2.153997884 0 1.490134027)
(-0.5017987148 0 0.2149297973)
(-0.5210040938 0 0.2804822632)
(-0.5271613033 0 0.2992711642)
(-0.5510587129 0 0.3538956106)
(-0.5983902119 0 0.4292482377)
(-0.6097452537 0 0.4496187881)
(-0.6617496773 0 0.5449890257)
(0.5691959837 0 1.278495023)
(0.1903640913 0 0.4923221655)
(-0.5602800528 0 0.2712794553)
(-0.5573866442 0 0.2548852814)
(-0.5328109744 0 0.2866561551)
(-0.5042404126 0 0.2766017433)
(-0.501970583 0 0.2717589226)
(-0.4841163073 0 0.2655999202)
(-0.4715316686 0 0.2604757117)
(-0.4710435194 0 0.2609581311)
(-0.464918781 0 0.2681660888)
(-0.4628649135 0 0.2487759992)
(-0.4622913516 0 0.2450666698)
(-0.4110877508 0 0.1622627932)
(-0.3700962137 0 0.1287167924)
(-0.3701354029 0 0.125395135)
(-0.4131120634 0 0.1567294024)
(-0.4497942876 0 0.152754728)
(-0.4778731982 0 0.1422076785)
(-0.6900689262 0 -0.2746166481)
(-0.3532747258 0 -0.4214339359)
(-0.4100827678 0 -0.4306434796)
(-0.2152251031 0 -0.5702810529)
(-0.1295846499 0 -0.670825224)
(-0.1830725624 0 -0.6756180379)
(-0.07877548806 0 -0.7002730511)
(-0.04981657219 0 -0.6874019997)
(-0.09866483634 0 -0.6567318769)
(-0.01250418357 0 -0.6824329933)
(0.03779194575 0 -0.6744206199)
(0.01291049736 0 -0.6040851071)
(0.1274936119 0 -0.6573864447)
(0.2892182824 0 -0.6419192198)
(0.2447819296 0 -0.5152691335)
(0.5555853504 0 -0.6590177582)
(0.9762960978 0 -0.8263871009)
(0.6371979125 0 -0.4954346705)
(1.540996475 0 -1.232760705)
(1.962215968 0 -1.709320772)
(1.71007582 0 -1.625888219)
(2.064799917 0 -1.792215478)
(2.130679845 0 -1.818633765)
(1.874628399 0 -1.870866319)