/*--------------------------------*- C++ -*----------------------------------*\
| =========                 |                                                 |
| \\      /  F ield         | OpenFOAM: The Open Source CFD Toolbox           |
|  \\    /   O peration     | Version:  2.1.x                                 |
|   \\  /    A nd           | Web:      www.OpenFOAM.org                      |
|    \\/     M anipulation  |                                                 |
\*---------------------------------------------------------------------------*/
FoamFile
{
    version     2.0;
    format      ascii;
    class       volScalarField;
    location    "1.4";
    object      deltaf;
}
// * * * * * * * * * * * * * * * * * * * * * * * * * * * * * * * * * * * * * //

dimensions      [0 1 0 0 0 0 0];

internalField   nonuniform List<scalar> 
2828
(
3.771946264e-07
1.090066434e-05
1.575736382e-05
1.565565074e-05
4.948828726e-06
0.0001969247089
2.56287141e-06
9.739696539e-08
2.543704553e-07
7.930297712e-06
5.901163909e-05
1.795813082e-05
8.326175696e-06
4.431465086e-06
1.169668637e-05
6.246145289e-05
0.0001692167689
0.0002030507807
0.0002270758737
0.0001841937696
2.4376864e-05
1.268613432e-07
5.138898075e-07
2.464972384e-05
6.69271886e-05
7.829780564e-06
1.040442145e-05
2.231570891e-05
5.603611638e-05
0.0001214526527
0.0001176019456
2.294131717e-07
1.607427118e-07
0.0001603930177
0.0001442816906
0.0001726553163
0.000158755488
0.0002246981803
8.632039368e-06
2.686369293e-11
8.608243107e-13
5.794710377e-05
1.047531451e-05
2.620414967e-05
5.242334066e-05
9.192222864e-05
0.0001167260748
6.659702996e-05
9.777018704e-09
1.289422003e-08
5.939540136e-08
1.277837973e-06
0.0001005066914
0.0001110225669
7.84403376e-05
5.865202167e-05
0.0001125650645
0.0002215797359
0.0001548770522
6.10272566e-05
1.363191152e-05
4.182432228e-06
2.850546768e-05
5.234874729e-05
7.980663855e-05
0.0001034008306
9.104730433e-05
3.569713477e-05
1.745106233e-07
2.617714671e-07
1.836003141e-07
3.094993581e-06
3.447360338e-06
0.0001759934747
0.0001367499662
0.0001120806153
7.275681933e-05
6.320020135e-05
0.0003673485839
1.417902029e-05
4.940935641e-05
9.272877841e-05
3.71656327e-05
1.103350924e-05
5.04344108e-05
8.303612551e-05
9.503012389e-05
9.633318304e-05
6.459081959e-05
2.014645223e-05
3.589183522e-06
7.926526393e-06
4.730990987e-06
4.364946288e-06
2.568840692e-06
1.189496709e-06
1.797367117e-08
0.0001280734583
0.0001681123007
0.0001582788964
0.0001211563869
0.0001145345969
0.0002302958903
0.0003820724304
0.0003258564148
1.969304947e-05
2.109321527e-05
3.321501503e-05
7.523515113e-05
9.993432004e-05
9.724056181e-05
8.071265229e-05
4.402943123e-05
1.24179676e-05
5.873097126e-07
2.846927825e-06
1.627636335e-06
7.173590023e-07
2.998060988e-07
1.341784531e-07
4.143045251e-08
0.0001188523176
0.0001306880152
0.0001686854475
0.0001953702052
0.000230448618
0.0004124452455
0.0006741683999
0.0007295506413
0.0004747936649
5.873713279e-05
4.607858837e-05
6.353834652e-05
9.283702443e-05
0.0001034623668
8.982101026e-05
6.317770573e-05
2.871479673e-05
5.760652441e-06
2.901121374e-09
4.522721234e-09
1.007085723e-08
1.242804702e-08
1.427062099e-08
1.681656169e-08
2.100493163e-08
4.533607785e-07
5.124741196e-05
0.0001029591683
0.0001937205745
0.000483378956
0.000910959397
0.001192665896
0.001075745751
0.0007590438609
0.0004502742417
6.02881399e-05
7.956276392e-05
0.0001022966137
0.0001267404864
0.0001200423104
7.907178402e-05
4.668292478e-05
1.742028811e-05
1.297507219e-06
6.139688368e-07
5.64033957e-07
5.756546119e-07
6.331075585e-07
7.314363527e-07
8.542448871e-07
9.829003209e-07
1.707357288e-06
1.308749702e-05
1.232585577e-06
2.33902938e-05
0.0002435158035
0.0008576756846
0.0008099342361
0.001153205059
0.0009775249031
0.0005945984319
0.0002641410159
0.000245154043
8.095297928e-05
0.0001117211168
0.0001298061108
0.0001231900209
9.900739434e-05
8.428875297e-05
3.360512846e-05
9.650795257e-06
1.093980724e-06
1.576875383e-06
1.474606337e-06
2.182187195e-06
1.679794154e-06
1.052571733e-05
1.461695122e-05
3.14758322e-05
7.861857187e-05
2.132754701e-05
7.555822858e-06
3.780182259e-05
0.00030197587
0.0003990037439
0.0004318994416
0.0004652184685
0.000309264969
0.0001083837391
0.0001741619752
0.0001691905035
0.0001040240115
0.0001143493481
0.0001162926441
8.426545587e-05
6.975079181e-05
0.0001750818804
2.39554332e-05
5.094014971e-06
5.927280038e-07
1.385711614e-07
8.523287393e-08
5.049372697e-05
2.694595151e-05
4.073422802e-05
6.08226408e-05
8.877747178e-05
0.0001141484031
2.619704676e-05
1.106688592e-05
1.241522089e-05
0.0001127663824
8.327032241e-05
4.034375671e-05
5.301395624e-05
2.413633944e-05
0.0001244316087
0.0001689295761
0.0001271177226
0.0001160352029
0.0001009095743
9.967793219e-05
0.0001017866671
0.0001235860696
1.510749735e-05
1.271677776e-05
2.573147836e-06
2.131553619e-07
4.455976253e-08
4.229355814e-08
0.0001526658368
5.717701394e-05
6.972699199e-05
7.915984969e-05
7.433136083e-05
4.308239369e-05
3.303665949e-08
8.686886282e-05
2.932228931e-05
7.047979264e-06
4.149584996e-05
5.465186194e-05
1.186876456e-05
1.687431585e-05
4.625110693e-05
0.0001540482331
7.406354683e-05
8.723734798e-05
0.0001294026956
0.0001432251413
0.0001578084456
0.0001283055432
5.071158409e-05
1.723779907e-07
1.991550725e-06
7.77977274e-06
1.791607407e-05
2.66087326e-06
0.0001746218724
0.0001057421851
7.233752282e-05
7.254255845e-05
6.239283247e-05
4.011289326e-05
1.368814636e-05
1.693083274e-08
1.730764053e-05
5.384051306e-06
2.871307064e-06
9.334751631e-06
4.784327841e-05
9.011037056e-05
4.101824269e-05
7.171095635e-05
0.000166486871
0.0001651337388
0.0001225221856
0.0001210962878
0.0002094987112
0.0002411725961
0.0002106382727
0.0001238310322
2.792737987e-05
2.907309095e-07
7.491831151e-07
1.243475895e-05
3.956523552e-05
0.0001039964254
0.0002180869133
0.0001409066408
6.968881419e-05
5.770487286e-05
3.833938996e-05
1.793208871e-05
4.105001446e-06
1.003346909e-07
1.432583984e-05
1.115674753e-05
2.294202749e-05
7.877565094e-05
0.0001237532087
0.0001211947781
0.0001172291639
0.0001392687478
0.0001829750751
0.0002576784163
0.0002617769652
0.0003095547986
0.000293729444
0.0001890173972
6.315373609e-05
2.168068218e-05
1.059057103e-06
5.149796173e-06
7.197896926e-06
5.648719935e-05
0.0001111182074
0.0002012035945
0.0001795708179
9.588466173e-05
6.75905071e-05
4.186447633e-05
2.378658231e-05
7.383143056e-06
7.978410014e-07
1.492407882e-07
8.294826301e-05
9.903724962e-05
0.0001096720741
0.000142552154
0.0001686503135
0.0002036982334
0.0002261327266
0.0001781080129
0.0001236766507
0.0001548344471
0.0002635507361
0.0002861577313
0.00022388494
6.796045905e-05
0.0001753523633
9.925491757e-05
2.550312825e-06
1.793762532e-05
3.049050938e-05
0.0001303655135
0.0001510583173
0.0001449807773
5.035656527e-05
5.357758772e-05
9.427969783e-05
4.174756327e-05
2.379589651e-05
8.0621144e-06
1.532012059e-07
4.755362788e-08
0.0001284309845
0.0001620741965
0.0001689068013
0.0001814730325
0.0001913194497
0.0001565377669
9.826360159e-05
8.005680024e-05
8.05947067e-05
6.01302889e-05
0.0001184888858
0.0001665236657
0.0001095521385
1.275172604e-05
6.506992368e-06
1.781962816e-05
9.13884665e-06
3.075194596e-05
6.123490823e-05
0.000171858145
0.0001501500397
0.0001022066538
1.785789007e-05
1.020846434e-05
0.0001317051364
0.0002032350168
5.177117715e-05
8.119351151e-06
2.795423898e-07
5.682599209e-08
0.0001612755485
0.0001774429354
0.0001798068381
0.0001899554459
0.000194309342
0.0001284160257
5.793597964e-05
6.307386082e-05
9.552163427e-05
4.335740314e-05
5.576834824e-05
7.163529547e-05
3.79084969e-05
5.526623756e-05
1.45682412e-06
5.074745793e-06
2.36561945e-05
3.107136084e-05
9.041320162e-05
0.0001413300904
0.0001260426771
7.924640719e-05
2.897280077e-06
2.890609939e-09
1.889239999e-08
9.585856565e-05
0.0001085748738
2.575394552e-05
6.349986741e-07
1.699184117e-07
0.0001793158594
0.0001616472802
0.0001485743125
0.000157029417
0.0001433958015
9.752764095e-05
8.666493351e-05
9.210548666e-05
5.396150265e-05
4.752182527e-05
4.186718842e-05
4.448210961e-05
5.265834177e-05
2.589200753e-06
2.363840386e-06
2.960870756e-05
0.0001054432241
0.0005024796046
0.000203985852
0.0001239431131
0.0001747332819
1.184197742e-05
4.486613948e-08
3.955644816e-08
2.979929116e-07
2.845296754e-05
5.073863623e-05
1.034266166e-05
6.625020743e-06
0.0001772985726
0.0001371490498
9.423269706e-05
7.378504878e-05
8.09258953e-05
7.988980489e-05
6.372434023e-05
5.334997231e-05
4.797159965e-05
6.322177848e-05
0.000159623354
0.000116678454
8.746862529e-06
5.694085559e-05
9.343986917e-05
0.0006179123961
0.0007357936962
0.0004189318855
0.0004038592083
0.0004210103464
0.0002635626613
0.000113027216
6.451603691e-05
4.752455207e-05
4.093155295e-05
2.999666982e-05
2.925865986e-05
2.224663816e-05
1.914269619e-05
0.0001496688352
0.0001090678326
6.228844022e-05
3.01080038e-05
1.879125344e-05
1.853626711e-05
1.551388094e-05
1.500541332e-05
3.198775564e-05
0.0001012459891
0.000247332307
0.0003590341201
0.000344480388
0.0004064150004
0.0005616520748
0.0005960875065
0.0003260040554
0.000361987884
0.0004337869508
0.0005519404391
0.0006191264825
0.0005512678174
0.0004452956561
4.864407039e-05
1.897104852e-05
3.876197423e-05
5.74239318e-05
5.183020867e-05
6.568016609e-05
4.458992977e-05
2.607842875e-05
1.21500484e-05
6.854555077e-06
6.134871406e-06
1.008994516e-05
3.59593232e-05
0.0001176406753
0.0002366115612
0.0003487002252
0.0004173484569
0.0004230026133
0.0005070607159
0.0001779849383
0.0001852829585
0.0001261894989
8.98049745e-05
0.0001220971153
0.0001236429789
8.60120466e-05
4.921690577e-05
2.507142497e-05
1.011590166e-05
3.165719667e-06
7.95595312e-05
9.292955749e-05
3.395694693e-05
4.606915397e-05
4.387269778e-05
2.348561235e-05
1.152680667e-05
8.786972567e-06
1.205225806e-05
3.297126273e-05
9.195052277e-05
0.0001640887574
0.0002012242223
0.0001900835688
0.0001481683189
0.0001286673958
7.195742151e-05
3.601854064e-05
1.854351653e-05
2.138438864e-05
4.811721557e-05
7.719162321e-05
8.177524748e-05
6.073242893e-05
4.031469331e-05
2.189545358e-05
9.015258354e-06
6.73841267e-05
6.18314782e-05
8.211212999e-05
5.753275974e-05
3.180868661e-05
2.005987959e-05
1.740753581e-05
2.685483435e-05
6.030623822e-05
0.0001073842761
0.0001297006797
0.0001141992772
7.274219324e-05
3.116547445e-05
2.803358675e-05
2.899474554e-05
1.943475761e-05
6.893940072e-06
2.229273473e-05
5.316619249e-05
7.498166964e-05
6.602075836e-05
5.179443841e-05
3.643497188e-05
1.882965112e-05
3.655725173e-05
9.172337546e-05
0.0001284510275
0.0001229626727
8.911074378e-05
5.374604474e-05
3.17838024e-05
2.625247722e-05
3.580486999e-05
5.697912981e-05
6.712921271e-05
5.140749069e-05
2.569860805e-05
2.468452995e-05
3.115946816e-05
2.463310875e-05
2.868514128e-05
1.083956746e-06
3.209157741e-06
1.97842779e-05
5.512390375e-05
5.866004208e-05
5.289501482e-05
4.837547522e-05
3.841685306e-05
0.0001293245883
0.0001429639475
0.0001242735116
9.309720554e-05
6.196293574e-05
3.401520306e-05
2.642573348e-05
2.971612147e-05
3.26223671e-05
2.561635341e-05
1.745888629e-05
2.805572269e-05
3.511990819e-05
2.104587695e-05
6.108366541e-06
1.278891215e-07
4.339080804e-08
1.281573724e-06
3.053304466e-05
4.241543354e-05
4.085800386e-05
4.393684942e-05
8.583908333e-05
7.610321293e-05
9.006188535e-05
9.865817027e-05
4.930310302e-05
2.664971898e-05
2.107397702e-05
1.998748479e-05
1.661458709e-05
1.495650958e-05
3.007423411e-05
3.857846007e-05
2.566268502e-05
7.960996586e-08
1.652071814e-08
7.372682793e-08
8.964130591e-06
2.67411102e-05
2.578283507e-05
1.743085151e-05
9.53172078e-05
0.0001195658371
6.195652283e-05
3.097931983e-05
1.945003472e-05
1.464336001e-05
1.140336489e-05
1.336640234e-05
2.767817465e-05
3.372363867e-05
2.201171578e-05
4.269082995e-08
9.945499396e-08
1.214929092e-06
1.954812924e-05
2.655737697e-05
3.865658626e-05
0.0001209549802
7.471305874e-05
3.723432356e-05
1.977274637e-05
1.196002659e-05
9.709509278e-06
1.366745851e-05
2.120745084e-05
2.228324189e-05
1.324756928e-05
1.88795014e-07
1.44206499e-06
8.798572192e-06
2.749610642e-05
2.31724768e-05
1.720814332e-05
1.481010261e-05
1.714408785e-05
1.597739003e-05
1.212776834e-05
5.962723404e-06
1.019672899e-06
5.932149335e-06
3.977193711e-07
1.312998791e-07
9.474234676e-08
9.504954055e-08
7.635489384e-08
7.376979e-08
1.090584748e-06
1.740524591e-05
4.118906395e-06
3.621242464e-05
2.393215537e-05
9.145046876e-06
1.619742827e-05
1.353363519e-05
1.551988789e-05
1.333922146e-05
6.263980725e-06
8.749477427e-06
2.680086119e-06
7.065898517e-07
9.011672161e-08
2.467012425e-07
5.525597005e-07
0.0002245761312
0.0002196232381
0.0001923417625
8.975865068e-05
4.292211887e-05
5.499178451e-06
5.241691136e-07
4.414047186e-07
0.0001037896352
0.0001606609685
0.0001685853735
0.0001473793608
0.0001100961346
0.000165885342
8.30633483e-07
5.783778725e-07
0.0001043242726
0.0001427908546
0.0001685637357
0.0002283946835
2.233935363e-08
5.852261792e-08
1.674788959e-07
6.962000608e-08
2.738643136e-08
0.0001043977895
0.0001586929426
0.0001252183213
0.0001169325891
0.0001225776811
6.637820891e-08
1.770439839e-06
2.052879097e-07
6.17251029e-06
9.177319146e-06
2.139935629e-09
0.0001079645331
0.0001986317398
2.704736809e-06
2.245685644e-06
3.524520462e-08
0.0001467355314
0.0003061719404
5.761444882e-07
3.775441629e-07
0.0002324754676
0.0001383857056
0.0001155947648
7.697014527e-05
3.435169578e-08
2.751603529e-08
9.738489455e-08
2.44387959e-08
1.325331721e-07
4.74210614e-05
0.0001017287773
9.371750888e-08
9.661803963e-08
2.526813802e-08
7.229491744e-06
6.311226478e-06
1.628498161e-06
1.769469444e-05
1.1840102e-05
9.532518511e-06
0.0001050356629
0.0001205073959
0.0001182107878
2.900999793e-05
2.451367291e-05
1.579586011e-05
1.421272832e-05
7.45215374e-05
4.518534508e-05
0.0001196705768
1.036044805e-06
4.027054625e-05
3.361382043e-05
5.481977645e-09
6.741727842e-05
6.855728032e-05
7.731454138e-05
5.476077448e-08
5.4223496e-08
2.896016132e-06
1.854898905e-06
1.072504137e-05
1.614091228e-07
1.072557516e-07
7.26498257e-08
4.579392632e-05
4.67506986e-05
1.202639964e-05
1.340738754e-07
1.54194246e-07
1.224719653e-07
0.0001096692374
0.0001306438684
9.553344376e-05
4.265352641e-08
3.098699231e-08
3.661444948e-08
0.0001450683871
0.0001605344405
0.0001490823806
7.914804258e-08
6.828839045e-08
4.652713633e-08
0.0001787188921
0.0001698106392
6.132295958e-07
8.09596171e-08
0.0001828049692
0.0001820164876
1.388242947e-05
0.0001822338025
0.0001675856169
0.000148663034
0.0001585297539
3.538459582e-05
2.716508203e-05
1.95642052e-05
0.0001236546413
0.0001086075854
0.0001322142319
6.445492126e-05
4.283133371e-05
3.529899039e-05
5.196237626e-05
7.652474094e-05
9.999341527e-05
3.324987486e-05
3.949618549e-05
3.97854888e-05
4.708027302e-05
5.864158465e-05
7.882343343e-05
4.682207767e-05
7.612937744e-05
9.650943725e-05
7.897375372e-05
2.091829798e-05
1.243543131e-06
1.673223082e-05
0.0001188224784
0.0001108817897
8.028254363e-05
5.241992983e-08
0.0001142525913
0.0001371441677
7.848044657e-05
5.572887004e-07
6.600675599e-05
7.794851777e-05
6.303741717e-05
6.776087934e-05
7.872102147e-05
3.554086824e-05
3.948309802e-05
3.164064075e-05
2.716658639e-05
1.446856731e-06
7.519472325e-05
0.000106937122
0.0001241578638
0.0001178166813
2.880600618e-05
3.354128303e-05
3.298291917e-05
9.940050287e-05
7.279277415e-05
5.594600654e-05
5.162022679e-05
4.286325124e-05
3.130111251e-05
2.702545782e-05
5.334955778e-06
8.331796328e-06
4.096480391e-06
1.22831365e-05
2.040649973e-05
1.986828901e-05
3.515395691e-05
3.100076843e-05
1.911321322e-05
1.961273576e-05
1.631174889e-05
1.999017064e-05
2.101954877e-05
1.596795007e-05
2.085944955e-05
1.884736717e-05
1.717896341e-05
1.551602198e-05
1.212590499e-05
1.412436943e-05
9.665247738e-06
7.911993273e-06
9.703219372e-06
5.666913706e-06
3.313001579e-06
2.271869399e-06
8.464594872e-08
2.128416261e-07
1.341944492e-07
7.152707751e-07
4.30932626e-06
2.866057457e-07
3.706040126e-05
6.056604059e-05
5.026261065e-05
6.431490124e-05
2.583135715e-05
3.194903114e-05
1.181517373e-05
4.85620859e-06
8.17222112e-06
7.21348342e-06
7.68557955e-06
4.786728014e-06
1.109061211e-05
1.83800699e-05
6.20977818e-06
3.249669536e-05
5.902798423e-05
2.604824934e-05
0.0001761243764
0.0001820128585
0.0002206604206
0.0001574705067
0.000183468009
0.0001518215535
0.0001027733677
1.2300453e-05
2.040524439e-06
6.633588938e-07
2.072822028e-10
1.378363136e-07
2.006849761e-11
1.323353238e-11
3.652853112e-06
2.069214066e-11
1.190735752e-09
4.111883298e-05
8.6349706e-05
1.251849825e-05
1.747302235e-05
7.510602707e-06
9.867090298e-06
5.882224057e-06
1.691747332e-05
2.475433362e-05
1.452156012e-05
3.676214118e-05
5.402816145e-05
3.540216917e-05
7.681622801e-05
0.0001028037511
8.597478116e-05
0.0001237229168
0.0001240308623
0.0001445064066
8.962262222e-05
4.272934962e-05
6.811196606e-05
2.473719626e-08
2.186381298e-08
1.666688165e-07
0.00011575688
0.0001075775742
0.0001647454211
9.374069317e-05
0.0001013018403
0.0001762607513
0.0001114843178
0.0001976905344
0.0002072072086
0.0002884710981
0.0001832540757
7.609772361e-05
8.862686455e-05
1.077775458e-05
5.237260548e-10
1.377406801e-08
3.481978581e-10
9.830577739e-13
7.307272141e-11
1.67711305e-09
6.159197729e-10
3.438239375e-05
1.625023807e-05
1.020101505e-05
1.944409668e-05
2.651171149e-05
1.649948673e-05
3.762140043e-05
5.102663222e-05
3.739248697e-05
6.727732769e-05
8.483525914e-05
7.11934117e-05
0.0001005965451
0.0001093785676
0.0001099114377
0.0001048441898
8.312812818e-05
0.0001028207874
4.88465048e-05
1.768685537e-05
2.721781901e-05
3.359245546e-08
9.453766108e-08
2.431604505e-08
4.011961153e-08
2.482696112e-08
2.291395391e-08
0.0001046808724
0.000107513355
0.0001084472095
0.0001018820011
8.426104404e-05
9.560015877e-05
6.676315316e-05
5.758419743e-05
6.416416964e-05
5.818378659e-05
7.951755144e-05
7.332505868e-05
0.0001496346426
0.0001941025135
0.000187868318
0.0001089098742
9.676229777e-05
0.0001861708742
0.0001044023935
0.0001122706827
0.0001193847325
9.150086587e-05
3.251731805e-05
2.811172679e-05
1.694074037e-06
1.751044734e-06
6.065382141e-06
5.270891628e-06
1.282101824e-05
1.188313968e-05
3.824629391e-05
6.298245657e-05
4.356958767e-05
6.859019943e-05
7.669410046e-05
6.447625409e-05
8.915169625e-05
9.865644641e-05
9.400456932e-05
0.0001015244129
9.471004973e-05
0.0001035987785
7.724517764e-05
5.201025759e-05
6.605838393e-05
2.634161959e-05
8.545847815e-06
1.185166808e-05
9.299583736e-07
2.340230059e-06
4.737295305e-07
1.81902281e-06
1.362037835e-06
1.490729434e-07
9.850355811e-07
2.066607145e-06
1.61981173e-06
2.906164899e-06
3.094798423e-06
4.193712028e-06
0.0001669071666
0.000168586533
0.0001525981755
0.0001619234972
0.0001514674629
0.0001264151235
0.000135117037
0.0001134235271
9.151674663e-05
9.273027803e-05
7.947303006e-05
6.243382448e-05
7.850446418e-05
0.0001087783231
0.0001111334802
0.0001918118577
0.0002076881269
0.0001475284769
0.0001623235114
0.0001850798639
2.771602327e-05
0.0001460791034
2.423894563e-05
7.494693655e-05
6.754462625e-06
9.373458512e-06
8.676967675e-05
1.310119751e-05
1.541751433e-05
9.465128787e-06
2.039130986e-05
3.399587658e-05
2.140741528e-05
6.345635383e-05
9.022297288e-05
7.899827475e-05
9.361251946e-05
9.372781799e-05
8.667445901e-05
9.758850842e-05
9.687558451e-05
9.933860784e-05
8.907336498e-05
7.386518937e-05
8.441108116e-05
5.355120712e-05
3.256703128e-05
4.100434314e-05
1.618406389e-05
8.108168167e-06
7.422492733e-06
1.017128557e-05
1.341319842e-05
7.505782897e-06
1.658303075e-05
1.623390219e-05
6.596026343e-06
1.508484907e-05
1.106690865e-05
4.605143126e-06
6.604158308e-06
3.29151593e-06
3.55630864e-06
1.68306726e-06
9.55804234e-07
1.724497071e-06
0.0001294568349
0.0001515052779
0.0001562881113
0.000169285558
0.0001783726231
0.000168352626
0.0001771330771
0.0001676683556
0.000140391355
0.0001582175011
0.0001630102307
0.0001092138244
0.0001990004015
0.0002778981974
0.0001519084464
0.0003869997518
0.0004809557654
0.0003058446981
0.0005663694758
0.0005398115589
0.0004050661119
0.0004121680446
0.0002488336952
0.0001501630481
5.347969682e-05
2.626301131e-05
1.593178443e-05
3.262479546e-05
3.99394584e-05
2.638744295e-05
4.808347389e-05
6.288849138e-05
4.846726317e-05
8.48491971e-05
0.000101282136
9.727854218e-05
0.000102716152
9.860003719e-05
9.762827855e-05
9.450145993e-05
8.582443222e-05
9.212174349e-05
7.193054369e-05
5.42488284e-05
6.371137365e-05
3.579403507e-05
1.987346542e-05
2.570928614e-05
8.748625574e-06
3.637649447e-06
5.338252224e-06
2.206674918e-06
2.559777379e-06
3.799374321e-06
1.34337135e-06
6.793120382e-07
2.280854325e-06
3.715850283e-07
2.185254312e-07
1.090180319e-06
1.357928929e-07
8.849348818e-08
4.644245238e-07
6.05895458e-08
4.397371822e-08
1.971749361e-07
8.116453177e-05
0.000101407964
0.0001204617945
0.0001195408462
0.0001413213444
0.0001489396175
0.0001673486943
0.0002002999332
0.0001847248396
0.0002443886501
0.0003163763009
0.000205247961
0.0004467492726
0.0006396186138
0.0002954049919
0.000833874869
0.0009570113759
0.0005558555685
0.0009811936076
0.0009226463819
0.0007292611118
0.0008166351392
0.0006671702895
0.0006349519204
0.0005002554466
0.0002843356775
0.0002893018364
5.826152059e-05
4.945707062e-05
3.690162206e-05
6.170265937e-05
7.183726722e-05
5.496468428e-05
8.090551292e-05
9.24129361e-05
7.630993006e-05
0.000105396418
0.0001123699308
0.0001039447852
0.0001080895286
9.663815601e-05
9.726224864e-05
8.407530691e-05
7.074507976e-05
7.854145705e-05
5.47097534e-05
3.784652337e-05
4.562095596e-05
2.256757948e-05
1.067849592e-05
1.500960069e-05
2.641881938e-06
5.48547711e-07
6.436497425e-09
3.458509471e-07
2.559547671e-07
6.146141443e-09
1.958298994e-07
1.571359632e-07
7.690257489e-09
1.329401358e-07
1.173134397e-07
1.143721093e-08
1.067178032e-07
9.923683038e-08
1.332588499e-08
9.444728439e-08
9.171961531e-08
1.536029328e-08
9.094034923e-08
9.182464848e-08
1.910036729e-08
3.999138377e-07
1.216448433e-05
2.322947795e-05
3.205249114e-05
5.915052474e-05
7.652697851e-05
0.0001066014716
0.0001920859403
0.0001382991149
0.0003664676497
0.0008259577101
0.0003446582913
0.0009229866074
0.001074324205
0.0006811043626
0.001201861012
0.001247048751
0.001099607647
0.001197919069
0.001074346491
0.001178644667
0.0008999874708
0.0007054427185
0.0009236479962
0.0005273681853
0.0003990328241
0.0005987929276
0.0003353094883
0.0001137803711
0.0001787662422
6.881735471e-05
8.205970519e-05
6.50113197e-05
9.780633371e-05
0.0001106603271
9.13245972e-05
0.0001217646763
0.0001315773303
0.00011484438
0.0001374809021
0.0001346752668
0.0001303365744
0.0001209087311
9.985964726e-05
9.960483866e-05
7.804342163e-05
5.758836716e-05
6.29995181e-05
3.957643981e-05
2.50301383e-05
3.097415837e-05
1.326510902e-05
5.00513564e-06
7.289658241e-06
9.481525029e-07
1.674279788e-06
7.311022663e-07
2.880990365e-06
4.243008711e-06
5.767868774e-07
5.503642167e-06
6.535365117e-06
5.642777781e-07
7.453761272e-06
8.11579981e-06
5.989151652e-07
8.765397497e-06
7.589062115e-06
6.793798023e-07
5.748975612e-06
3.784854215e-06
7.850193948e-07
2.264059528e-06
1.354143622e-06
9.587172598e-07
8.726766947e-07
8.050983941e-07
9.722576006e-07
3.768599638e-06
7.931035527e-06
7.750506936e-06
3.691151324e-05
0.000265620709
7.481495679e-05
0.0004071010306
0.0004776475094
0.0005186843873
0.000640212863
0.0006195727012
0.0004072411969
0.0007073528763
0.0008208385283
0.001135264933
0.0008325552566
0.0007766616357
0.001097143923
0.0006423684336
0.0004613318664
0.0008005868952
0.0002888919882
0.0001698275545
0.0004002341531
0.0001341584737
0.000201331603
0.0002219034304
0.000203260904
0.0001073280564
0.0001051409742
9.303734708e-05
0.0001049615882
9.642334716e-05
0.0001172046023
0.0001254137404
0.0001232634147
0.0001258834607
0.0001162623186
0.0001299806238
9.877459469e-05
8.084377402e-05
0.0001112911839
7.199931973e-05
8.010719514e-05
9.10805854e-05
0.0001007652262
6.645377342e-05
5.778195913e-05
2.83735339e-05
1.549377488e-05
1.986377865e-05
6.774885756e-06
1.786765739e-06
3.190985131e-06
9.716580904e-07
5.940128135e-07
1.420176384e-06
4.464371892e-07
3.612580971e-07
1.563376588e-06
3.147236174e-07
3.655936169e-07
1.410844988e-06
3.159058437e-06
1.509848364e-05
1.475125768e-06
1.2922696e-05
1.983978195e-05
1.374282311e-05
2.305945339e-05
2.827162302e-05
1.131698173e-05
3.681478813e-05
4.883906144e-05
2.082709911e-05
6.471412228e-05
8.41766197e-05
4.919276695e-05
9.856616851e-06
6.657006973e-06
7.581279938e-06
2.233372551e-05
0.0001488885045
0.0002384836488
0.0001958460515
0.0001484078606
0.0003276841059
0.0001943456764
0.0002039953905
0.0005120853313
0.0001631925659
0.0001841651458
0.0004581819747
0.0001878150044
0.0001569055308
0.0004183085306
9.9571734e-05
5.856731433e-05
0.0001885507988
6.322416248e-05
0.0001573019147
9.579918315e-05
0.0002122563398
0.0001932590988
0.0002275153292
0.0001475926338
0.0001212712905
0.0001143546817
0.000112101514
0.0001078555855
0.0001080470388
0.0001068442952
0.0001078235495
0.0001188412772
0.0001062111277
9.826911998e-05
0.0001035749066
8.723053682e-05
8.464968139e-05
6.851452778e-05
0.0001069076861
0.00015935794
0.0001057251139
0.0001886937592
4.592874025e-05
0.0001369930735
1.811975637e-05
8.878675125e-06
1.206204059e-05
3.700666411e-06
3.091538138e-06
1.294405575e-06
2.902054757e-07
6.777671734e-08
2.307987297e-07
3.529059564e-08
2.512418158e-08
9.75422715e-08
2.559224305e-08
1.151304033e-07
1.949082792e-07
0.0001094118982
3.821652551e-05
2.316562579e-05
4.251231389e-05
4.957505669e-05
3.371301658e-05
5.790752632e-05
6.673534948e-05
4.948977684e-05
7.589946746e-05
8.392762329e-05
7.420678344e-05
8.86689982e-05
8.700046531e-05
0.0001029321221
3.451351394e-05
2.773860169e-05
1.71487072e-05
2.143903154e-05
1.488457321e-05
7.431286565e-06
1.018171283e-05
2.84134621e-05
6.584511287e-05
6.619738198e-05
4.57252378e-05
6.150839987e-05
5.243511897e-05
1.638497815e-05
4.762936283e-05
1.318223435e-05
1.52573926e-05
5.238415502e-05
1.663425568e-05
1.650882322e-05
4.099389763e-05
1.692917706e-05
5.4761056e-05
2.748344579e-05
0.0001677357827
0.0001382050977
0.0001839714102
0.000109461812
0.0001002477971
0.0001435363898
0.0001047339508
0.0001141009031
0.0001210059973
0.0001186099742
0.0001140366847
0.0001079931986
0.000105683758
0.0001020281313
9.854788888e-05
0.0001061463775
0.000113191034
0.0001004883507
0.0001181568892
0.0001189833451
0.0001099412139
0.0001032200602
5.071257556e-05
0.0001098895691
1.642442867e-06
2.664952578e-06
6.525845845e-06
8.838349484e-06
5.25665122e-06
6.556028614e-06
3.371227399e-06
9.21610281e-06
5.300538008e-06
1.240424049e-07
6.45862711e-08
6.812560336e-08
5.065057296e-08
4.661730591e-08
3.508700071e-08
1.156156173e-07
0.0001469906715
2.298179476e-07
0.0001146473588
6.943314136e-05
5.545207425e-05
6.71170551e-05
7.083322463e-05
6.276909706e-05
7.435936801e-05
7.537320885e-05
7.54013191e-05
7.326248005e-05
6.707548258e-05
7.939595734e-05
5.629099298e-05
4.132004984e-05
6.237625887e-05
2.415538644e-05
8.77128496e-06
1.918418912e-05
3.573903118e-05
1.328329024e-05
5.984100828e-05
5.76493285e-06
3.835554262e-06
1.247543653e-05
5.423123239e-06
1.626261194e-05
1.735432606e-05
3.194685032e-05
5.09256947e-05
4.475353981e-05
6.996111546e-05
2.541397259e-05
1.628084371e-05
1.867034311e-05
2.046169594e-05
1.207035308e-05
3.338025011e-05
6.180273848e-05
2.700317382e-05
0.0001056420777
0.000168092719
0.000110406125
0.0001432609385
9.224777533e-05
9.51012581e-05
7.321814653e-05
7.265455709e-05
7.334399208e-05
8.716964903e-05
0.0001209875884
0.000109478517
0.0001594871388
0.0001887248791
0.0001394062719
0.0002074406193
0.0002209436942
0.0001496713159
0.0002240106124
0.0001971613569
0.0001531465282
0.0001333106471
6.961996809e-05
9.294869515e-05
2.770573911e-05
1.10046997e-06
4.880162111e-06
8.853038485e-08
5.754038539e-08
2.338786097e-07
9.078224549e-07
3.630018137e-06
3.887439871e-06
1.010794498e-05
2.760270081e-05
1.82424176e-05
1.591073635e-05
6.766461279e-06
7.37659895e-06
4.762281712e-06
0.000178562772
1.833475557e-06
0.0001726662488
0.0001429725678
0.000139398677
0.0001037920865
7.891774059e-05
7.613381608e-05
7.273126672e-05
7.060074325e-05
7.316008391e-05
6.626162804e-05
5.926401e-05
6.901870986e-05
4.999408819e-05
3.902348948e-05
5.257527653e-05
2.736381137e-05
1.642285171e-05
2.640860961e-05
7.696548204e-06
2.181157121e-06
4.417477457e-06
1.29551568e-06
1.10307359e-06
3.2370578e-06
1.222830606e-06
2.131030792e-06
3.940060091e-06
1.650590196e-05
0.0001210410486
3.133220087e-05
9.289522388e-05
0.0001072127526
7.410393814e-05
0.0001042914748
7.713563353e-05
4.821820777e-05
7.56338568e-05
8.784884956e-05
4.88477812e-05
0.0001110222953
0.000146771446
0.0001129053825
0.0001905903516
0.0002195252352
0.0002085824957
0.0001989682279
0.0001931334034
0.0001316696041
0.0002183720464
0.0002798086139
0.0001519748337
0.0001961347911
0.0002362921812
0.0001631983946
0.0002637363865
0.0002634354088
0.0002373469182
0.0002297061997
0.000173627364
0.0002293613698
0.0001174665936
8.369411482e-05
0.0001774780561
5.707741147e-05
2.657421411e-05
6.988891215e-05
9.090049209e-06
2.701285021e-06
1.472000736e-06
9.589060434e-07
3.800076666e-07
1.181201664e-07
7.383321573e-07
3.935359359e-06
3.697622658e-06
2.299970919e-05
8.078946759e-05
4.467926392e-05
7.716140431e-05
0.000110752269
5.410478436e-05
0.0001791466912
0.0002619667837
0.0001994910558
0.0003029432176
0.0002913647327
0.0001958372169
0.0002339205158
0.0001444813467
9.069961856e-05
7.146481467e-05
5.757294764e-05
6.454625442e-05
4.900121587e-05
3.944964483e-05
4.867272643e-05
2.909339809e-05
1.935574713e-05
2.774105316e-05
1.136347259e-05
5.637932717e-06
9.847518523e-06
1.922552247e-06
3.554371666e-07
8.810386077e-07
4.581302933e-05
4.966383534e-05
1.380062297e-05
6.264038497e-05
8.611364331e-05
4.348906322e-05
0.0001149332604
0.0001384870645
0.0001228676224
0.0001413587023
0.0001450312261
0.0001270645163
0.0001479636556
0.0001549618785
0.0001119119748
0.0001647193003
0.0001660539359
0.0001276241922
0.000157123141
0.0001489784825
0.0001561110677
0.0001550207115
0.0001771023494
0.000215551078
0.0002102621568
0.0002605364292
0.0003166456423
0.00028317268
0.0002708754068
0.0001441595931
0.0003125794086
0.0003327827291
0.0003822629237
0.0002727255075
0.0002046319307
0.0002530247937
0.0001261576514
6.659627902e-05