/*--------------------------------*- C++ -*----------------------------------*\
| =========                 |                                                 |
| \\      /  F ield         | OpenFOAM: The Open Source CFD Toolbox           |
|  \\    /   O peration     | Version:  2.1.x                                 |
|   \\  /    A nd           | Web:      www.OpenFOAM.org                      |
|    \\/     M anipulation  |                                                 |
\*---------------------------------------------------------------------------*/
FoamFile
{
    version     2.0;
    format      ascii;
    class       surfaceScalarField;
    location    "1.4";
    object      phi;
}
// * * * * * * * * * * * * * * * * * * * * * * * * * * * * * * * * * * * * * //

dimensions      [1 1 -1 0 0 0 0];

internalField   nonuniform List<scalar> 
5536
(
3.433463443e-11
-3.850654449e-10
9.139715115e-12
-9.767266842e-11
-3.473015511e-09
-8.367878147e-11
1.375926341e-10
5.31267105e-11
-4.380237767e-11
-1.826198275e-12
3.249342876e-10
8.640376067e-12
-1.111715589e-11
1.967653736e-10
-1.40625641e-08
6.046696669e-09
1.095027815e-10
-7.165756327e-10
-5.119270813e-11
1.964466932e-11
1.33753662e-11
-1.799665618e-11
-2.09053271e-11
6.023323246e-11
4.416156109e-11
-1.864526935e-10
-2.882495607e-11
7.885715744e-10
2.421790349e-10
-6.442366965e-10
-3.422140211e-09
7.41757496e-09
5.987991605e-09
-9.458628398e-09
-3.108527899e-09
4.470946069e-10
1.207455436e-09
-8.130323663e-10
-1.944112987e-10
-3.339512489e-10
1.56689451e-11
4.081104056e-10
-6.148010828e-11
-1.983568947e-10
2.182289941e-10
6.690336021e-10
-6.735545929e-10
-1.099086464e-11
1.923846474e-09
3.136207313e-09
-5.034259937e-09
4.639388382e-11
1.921257669e-08
-3.189951961e-08
1.273507122e-08
3.38547366e-08
5.630160166e-08
-3.449801145e-08
-3.702861847e-09
1.375565993e-08
1.568258585e-08
-2.359706853e-08
-5.943657364e-09
1.663884739e-08
6.481498514e-09
-1.554575357e-08
-4.660566889e-09
1.183097079e-08
2.624298589e-09
-4.621299583e-09
-9.793386544e-09
-1.701783944e-10
2.953285772e-11
2.290077638e-11
-1.745711347e-10
-2.843274994e-11
1.420866223e-10
1.103418588e-10
-6.183845233e-15
-4.060938011e-10
2.530858452e-09
1.284980128e-09
8.907672225e-15
-4.586728805e-09
1.042475921e-08
8.754301177e-09
-1.300649106e-08
-2.117261317e-09
5.741189964e-10
7.653603144e-10
-2.28390649e-10
-4.032349425e-10
-7.136221155e-10
7.059049126e-10
1.543862381e-09
-1.504339537e-09
-2.274591206e-09
3.118055678e-09
5.193509844e-09
-6.000813329e-09
-9.091388237e-09
1.069340128e-08
1.596392761e-08
-1.748091099e-08
-3.220179856e-08
2.543935582e-08
3.760288318e-08
-3.065575333e-08
-4.800935257e-08
2.489997962e-08
3.751738904e-08
-1.426891723e-08
-4.617596401e-11
-2.930311598e-11
5.705845063e-12
7.952945844e-11
8.686921029e-13
7.440395322e-11
-1.072323285e-10
-1.105170525e-08
1.952788135e-08
1.401900928e-08
-1.875671781e-09
-1.148502786e-08
6.929490841e-09
1.320159648e-08
2.010271719e-09
-1.526038956e-08
1.270227389e-09
1.630939964e-08
2.737956123e-09
-1.547934018e-08
-7.99166614e-10
1.211168752e-08
2.612553041e-08
-1.640837281e-08
-4.492772545e-08
1.990110059e-08
1.308466556e-09
-3.959200043e-09
-8.373816629e-09
-7.129069949e-15
4.115547304e-15
2.213083828e-15
1.67591279e-15
-1.073433209e-16
-5.061586846e-16
3.419577632e-19
1.52234578e-16
2.272967513e-16
7.36261549e-09
-2.291541465e-14
-3.131207497e-09
-1.305048585e-09
-3.121368923e-10
1.151563427e-09
1.121330629e-09
-1.79823952e-09
-3.096819914e-09
3.230563192e-09
5.398313393e-09
-5.480465719e-09
-9.118236615e-09
8.760864148e-09
1.346661464e-08
-1.302584916e-08
-2.20561117e-08
1.783079418e-08
2.641979857e-08
-2.203906972e-08
-3.798196005e-08
2.372472054e-08
3.531996023e-08
-2.085641533e-08
-2.784098496e-08
1.331936132e-08
1.992981585e-08
-5.308081219e-09
-7.137526993e-13
1.086287043e-12
3.521308127e-13
-5.658031428e-13
-9.809388023e-13
2.148732254e-13
5.655112104e-13
2.208614044e-13
-5.570563452e-12
2.47174086e-12
4.62886314e-12
-1.388660867e-12
-7.185504842e-12
1.854290533e-11
-5.430038564e-13
-5.14250368e-08
3.140683388e-08
2.108605807e-08
-1.774544063e-08
-1.507452078e-08
2.034150716e-08
1.258189307e-08
-7.632829409e-09
-1.01713318e-08
7.859751762e-09
8.070096965e-09
-1.652749386e-09
-6.57906313e-09
2.837948612e-09
6.433810868e-09
-8.942064814e-11
-7.573341965e-09
9.787180757e-10
8.871354546e-09
4.147637223e-08
-1.949584205e-08
-1.976296189e-08
3.784359229e-08
2.891935813e-08
-3.96425175e-08
-2.19059854e-08
2.492738006e-08
6.46308257e-14
-1.077180081e-09
-1.121980103e-08
-3.664632239e-09
8.55140295e-16
2.487997643e-09
-7.028184515e-12
-1.064201356e-09
3.314469474e-10
6.563952525e-10
8.050807076e-11
-1.5029056e-09
-2.681279714e-09
3.077536972e-09
4.411129615e-09
-5.214190563e-09
-8.314008395e-09
7.464011877e-09
1.206695616e-08
-1.051294296e-08
-1.761797994e-08
1.402828593e-08
2.108778051e-08
-1.736166339e-08
-2.87739641e-08
1.968489336e-08
2.926901901e-08
-1.999520814e-08
-3.10640003e-08
1.754676736e-08
2.620683071e-08
-1.251418718e-08
-1.386632425e-08
6.50511268e-09
9.409390167e-09
-1.9786641e-09
-1.158443719e-12
1.652144188e-11
5.192955565e-12
-1.392238269e-11
-1.58816017e-12
6.229424771e-12
8.982482446e-12
-2.661158558e-12
-2.80544951e-12
5.511670231e-13
7.065914545e-12
2.973112722e-12
3.238277016e-11
-4.071898345e-11
-5.730350453e-11
8.244197929e-11
-6.781162412e-11
-1.248621638e-10
4.11649382e-13
-1.706449124e-07
8.579936086e-08
8.727190395e-08
-3.612565507e-08
-6.264965425e-08
5.460092842e-08
4.581162625e-08
-2.411323622e-08
-3.389459619e-08
3.354768774e-08
2.452011616e-08
-9.987665234e-09
-1.705776651e-08
1.538157344e-08
1.198794202e-08
-5.085949664e-09
-9.495132008e-09
8.610552548e-09
8.679558643e-09
-9.321914956e-10
-3.224166165e-09
1.939754407e-08
-2.184427285e-08
2.190956056e-09
-1.753043478e-10
7.622120228e-11
4.542927601e-09
8.822374912e-09
-1.224721043e-08
-1.766418663e-10
2.478113317e-08
1.245859161e-08
-3.807008826e-08
-1.822906997e-10
4.241599408e-08
-6.27240555e-11
-2.899677758e-08
1.675772418e-09
3.912496389e-09
-7.188014311e-10
7.063320743e-10
1.718690781e-09
-1.951802499e-09
-6.692826742e-09
5.261152986e-09
9.672979976e-09
-9.827437874e-09
-1.622248976e-08
1.228083839e-08
1.995558974e-08
-1.446675149e-08
-2.358815173e-08
1.674020955e-08
2.501413996e-08
-1.796132517e-08
-2.827320228e-08
1.759079943e-08
2.622352655e-08
-1.535342213e-08
-2.138952109e-08
1.15058502e-08
1.699490494e-08
-6.975144094e-09
-6.24540729e-09
3.105733793e-09
4.089218897e-09
-8.888147796e-10
-1.665800277e-11
2.186697309e-10
3.50107758e-11
-1.706076395e-10
-3.798486394e-11
1.293370533e-10
7.621153252e-11
-8.650685423e-11
-1.819096066e-11
2.871341856e-11
-2.501000558e-11
4.540565928e-11
8.097367099e-11
-1.011198074e-10
-1.102785489e-10
1.270830179e-10
7.52394434e-11
-1.286639411e-10
-6.746818834e-11
1.128807155e-10
-2.770962458e-11
-9.586998787e-11
6.385198816e-13
-9.032106579e-14
6.311629255e-12
-4.069164242e-08
-8.104626433e-08
5.766455171e-08
6.586281511e-08
-6.930817308e-08
-7.555638245e-08
7.283681198e-08
7.451526299e-08
-4.712346655e-08
-6.713061672e-08
5.98795773e-08
5.628652225e-08
-2.501734373e-08
-4.449485952e-08
3.811352344e-08
3.425227912e-08
-1.487325123e-08
-2.762092348e-08
2.65559665e-08
2.616366412e-08
-1.865528262e-08
-3.14375109e-08
2.746285388e-08
4.267912267e-08
-2.279440248e-08
-5.274340344e-08
4.226230821e-08
6.683637366e-08
-1.663177214e-08
-7.189068572e-08
2.697176373e-08
5.135923427e-08
-5.084458814e-10
-5.965934728e-09
1.7105998e-09
-1.174333621e-09
-1.720433871e-09
1.909180819e-09
3.222027891e-09
-2.558495296e-09
-3.526179512e-09
3.480410672e-09
6.182457415e-09
-5.518998944e-09
-1.296386848e-08
9.446527268e-09
1.605840173e-08
-1.357044696e-08
-2.269762537e-08
1.544164423e-08
2.430242943e-08
-1.622338911e-08
-2.540311207e-08
1.668247895e-08
2.488822737e-08
-1.592073419e-08
-2.353118811e-08
1.3820368e-08
2.053125752e-08
-1.063093032e-08
-1.320072884e-08
6.97545225e-09
1.002667729e-08
-3.686280456e-09
-2.709662116e-09
1.446915775e-09
1.710704727e-09
-3.909229152e-10
5.836291107e-12
3.477608737e-13
-2.11478999e-12
1.836579967e-11
2.759715309e-11
-1.346152939e-10
-6.025367695e-11
1.748299542e-10
5.697586727e-11
-1.677628698e-10
-3.229242976e-11
1.374526447e-10
3.575902354e-11
-1.051227822e-10
-1.232200093e-11
7.694397312e-11
1.983657642e-11
-5.348493174e-11
-5.065029754e-12
3.580388299e-11
8.994943519e-12
-2.379592857e-12
1.558785958e-11
-2.363268831e-11
-4.474260979e-12
4.967155114e-12
-3.981270599e-08
-3.747803899e-08
3.366906636e-08
4.498036002e-08
-5.001911619e-08
-4.893331336e-08
4.424182005e-08
5.685378746e-08
-7.070626252e-08
-6.680577487e-08
6.59263445e-08
7.51264449e-08
-6.933269341e-08
-7.955961046e-08
7.572324976e-08
8.006375722e-08
-5.398389125e-08
-7.895683091e-08
7.477199097e-08
8.127739609e-08
-4.744448593e-08
-9.254416292e-08
8.267059426e-08
1.132691644e-07
-4.713649556e-08
-1.36851398e-07
7.555968009e-08
1.54152782e-07
-4.907770664e-08
-1.577078667e-07
5.979379348e-08
1.500472443e-07
-3.056694275e-08
-1.230093104e-07
3.678138845e-08
8.148965227e-08
-5.291523191e-09
-1.991890539e-08
7.042055037e-09
-2.402256497e-09
-5.367724188e-09
5.095846911e-09
7.968559911e-09
-6.376283323e-09
-9.409510896e-09
7.816089313e-09
1.283492676e-08
-9.984295411e-09
-1.864890125e-08
1.29660124e-08
2.067193191e-08
-1.546364674e-08
-2.490681129e-08
1.623958696e-08
2.476005496e-08
-1.577772245e-08
-2.365227053e-08
1.468536351e-08
2.187790929e-08
-1.267783326e-08
-1.747283239e-08
9.883708405e-09
1.453030685e-08
-6.75639692e-09
-7.429145983e-09
3.869631905e-09
5.364200464e-09
-1.712200459e-09
-9.94125866e-10
4.828360307e-10
5.32170494e-10
2.907496134e-12
2.63581712e-14
-4.595846436e-13
6.580824937e-15
2.22118939e-13
2.411902667e-13
-6.073061521e-13
1.674747729e-14
6.991825677e-13
9.164871042e-13
-1.58413891e-12
-1.398130261e-12
2.306717489e-12
9.972167549e-13
-2.690717423e-12
-9.758535676e-13
2.890287259e-12
9.646549525e-13
-2.995656923e-12
-8.215136576e-13
3.05896274e-12
8.864123959e-13
-3.115658298e-12
-7.864567016e-13
3.208135645e-12
5.902966537e-13
-1.048676641e-12
4.024992715e-12
-3.406030217e-12
1.789215646e-11
-7.110595615e-11
4.46777871e-13
8.662654333e-11
-2.2150947e-08
-7.719702897e-09
1.30097139e-08
1.747559561e-08
-3.675015705e-08
-2.71857165e-08
2.863382231e-08
3.860906977e-08
-5.992063713e-08
-5.428597809e-08
5.427587858e-08
7.643547265e-08
-8.208252436e-08
-1.295470358e-07
8.701347627e-08
1.65930179e-07
-1.126162254e-07
-2.082274105e-07
1.657244778e-07
2.498535527e-07
-1.33796252e-07
-2.802179742e-07
1.774479305e-07
2.894242911e-07
-1.149226379e-07
-2.725793339e-07
1.420395401e-07
2.356132847e-07
-7.982551024e-08
-1.916319048e-07
8.758762599e-08
1.492633621e-07
-4.648014453e-08
-1.088808523e-07
4.525148158e-08
5.720116548e-08
-8.0625048e-09
1.249613926e-09
9.066651041e-09
-7.86870914e-09
-1.099798624e-08
9.895801819e-09
1.434718816e-08
-1.18254184e-08
-1.647700231e-08
1.387627471e-08
2.041236926e-08
-1.632956807e-08
-2.296405701e-08
1.877467611e-08
2.598645114e-08
-1.980735553e-08
-2.476095698e-08
1.835991977e-08
2.540371468e-08
-1.514177763e-08
-1.979998515e-08
1.191882139e-08
1.775879929e-08
-9.285228039e-09
-1.181173355e-08
6.50458241e-09
9.380452584e-09
-3.928016066e-09
-3.747713646e-09
1.905383913e-09
2.530043348e-09
-6.230665317e-10
-2.401638653e-10
1.855409957e-11
1.124209963e-10
1.121868636e-10
-2.450378793e-11
-1.06601813e-10
3.326994683e-11
1.021744306e-10
-1.122842833e-11
-9.939679e-11
1.731091039e-11
9.766504651e-11
-6.344424719e-12
-9.65511708e-11
1.135503329e-11
9.590790272e-11
-3.880021773e-12
-9.55042358e-11
8.428850532e-12
9.503302899e-11
-2.671701584e-12
-9.462266442e-11
6.982900479e-12
9.323156861e-11
-1.72560898e-12
-9.019979254e-11
3.83583653e-12
8.792365849e-11
-1.011939676e-12
-9.024439002e-11
6.114185442e-14
8.829333007e-11
-5.983115075e-11
-9.456433067e-11
1.583293303e-10
-4.536559115e-10
3.269581111e-11
-4.042054265e-12
2.721539545e-11
1.143102661e-10
-7.160016726e-09
-1.830960089e-09
4.028299184e-09
6.22087641e-09
-2.082578189e-08
-1.707888833e-08
2.222704287e-08
4.090805436e-08
-6.03971258e-08
1.269249622e-08
1.196062622e-07
-3.15053367e-08
-9.333738598e-08
-7.596316532e-08
1.333130884e-07
2.606436601e-07
-1.933300153e-07
-2.606695791e-07
1.958120095e-07
2.235116066e-07
-1.816985717e-07
-2.067730327e-07
1.534049109e-07
1.868150526e-07
-1.271171265e-07
-1.552768356e-07
8.43835267e-08
1.151547186e-07
-6.341845267e-08
-7.612956443e-08
3.134321647e-08
4.791831789e-08
-3.537051494e-08
-3.033827887e-08
2.968375001e-08
-5.266779627e-10
-1.084164328e-08
9.936806717e-09
1.30565037e-08
-1.295124115e-08
-1.763480762e-08
1.535209717e-08
2.009269777e-08
-1.75218112e-08
-2.347905817e-08
1.913748092e-08
2.438834888e-08
-1.967110793e-08
-2.625045125e-08
1.869367795e-08
2.237188397e-08
-1.635936272e-08
-2.346099938e-08
1.354977571e-08
1.804970259e-08
-1.128900047e-08
-1.654492342e-08
9.611826295e-09
1.677461093e-08
-6.725441728e-09
-7.342845211e-09
3.954303121e-09
5.735326902e-09
-2.071951821e-09
-1.658642201e-09
8.013837626e-10
1.02555917e-09
-1.357880751e-10
-6.334777346e-11
-7.963912807e-11
6.692085821e-11
9.031586827e-11
3.629260733e-11
-1.442725991e-10
-4.247780162e-11
1.59275009e-10
4.202777175e-11
-1.529365615e-10
-2.389799127e-11
1.386032062e-10
4.174844925e-11
-1.230993941e-10
-1.3716906e-10
1.761302218e-10
1.851499212e-11
-1.009089309e-10
4.695112861e-11
1.803463106e-11
-1.984146182e-10
6.942405235e-10
9.462726951e-10
-1.35226826e-09
-1.272320612e-10
2.378077351e-09
1.858414589e-09
-4.083604562e-09
-5.942103855e-11
6.907788372e-09
4.706972455e-09
-1.154885022e-08
3.272483692e-11
1.256337015e-08
-3.180091726e-08
1.916925339e-08
-5.733875057e-10
1.236825151e-09
-5.347793659e-10
2.254497043e-10
-1.157854094e-10
2.912860156e-10
6.741846615e-11
-4.183111341e-09
-5.626590621e-10
2.677984524e-09
2.072872898e-09
-2.645445344e-08
-9.535407222e-10
2.058900856e-08
6.485263224e-09
-8.997610943e-08
-1.579562231e-08
4.986570088e-08
2.530756133e-08
-1.35021409e-07
-5.125969693e-08
6.985905304e-08
5.2153869e-08
-1.440554303e-07
-5.687908735e-08
7.559887484e-08
5.985916581e-08
-9.966229286e-08
-5.48770998e-08
4.448701029e-08
4.205348412e-08
-4.062460214e-08
-2.710339658e-08
1.773960689e-08
1.541490599e-08
-1.632126909e-08
-8.985478123e-09
2.217687121e-08
4.13045629e-09
-2.693474223e-08
7.353650137e-09
2.233246298e-08
-1.227136054e-08
-1.512480359e-08
1.396244052e-08
1.690598044e-08
-1.501447588e-08
-2.106067857e-08
1.632856223e-08
2.055243954e-08
-1.747484833e-08
-2.34753168e-08
1.756966911e-08
2.183970831e-08
-1.583044964e-08
-1.784860497e-08
1.255298359e-08
1.560490985e-08
-9.284771244e-09
-1.289561196e-08
7.798963069e-09
1.116380585e-08
-9.480067519e-09
-1.766625271e-08
1.418512718e-08
1.778428206e-08
-1.190901037e-08
-4.393682434e-09
2.106364418e-09
3.238212635e-09
-9.512051833e-10
-5.934160097e-10
2.815239059e-10
3.439072466e-10
6.995175613e-13
-6.152851631e-11
-6.152926928e-11
5.092274011e-11
7.926046802e-11
2.051764121e-11
-5.37458529e-11
-2.613575647e-13
3.518506146e-11
8.803120897e-12
-2.303949251e-11
4.4178175e-13
1.471664016e-11
-8.220181113e-13
-1.556434181e-12
2.5933075e-09
-2.679562142e-09
-1.137220134e-09
3.716054891e-09
2.876541213e-09
-5.411754057e-09
-2.666176635e-09
7.335397554e-09
5.203882851e-09
-9.822342154e-09
-5.099674783e-09
1.291136783e-08
8.742339702e-09
-1.651714942e-08
-9.895523794e-09
2.042813693e-08
1.372808402e-08
-2.421725759e-08
-1.707262723e-08
1.84327804e-08
-2.851903173e-08
2.719232419e-08
-1.074329234e-09
1.122900093e-09
1.279566705e-09
-7.069597169e-10
-4.462186055e-10
3.958889756e-10
5.476611004e-10
-1.895785401e-10
-1.117740591e-09
-7.479502602e-12
6.172760016e-10
9.941789896e-11
-1.262091941e-08
1.229281553e-09
7.40366592e-09
-6.922622655e-10
-1.964816801e-08
-1.216416553e-10
6.53813041e-09
1.911124239e-09
-1.971168285e-08
-1.446840711e-09
3.003925561e-09
1.456488556e-09
-2.596315057e-08
-2.47525103e-09
5.592787927e-09
2.603196869e-09
-1.35273923e-08
-1.955787291e-09
4.125709957e-09
1.499799548e-09
-1.176549451e-08
-1.010397053e-09
2.217397791e-08
-4.446383559e-09
-2.680206264e-08
1.101087293e-08
2.021789018e-08
-1.40417986e-08
-1.938745836e-08
1.503330496e-08
1.706860512e-08
-1.536316005e-08
-1.824940294e-08
1.507285675e-08
1.909693426e-08
-1.435980244e-08
-1.925785947e-08
1.374061428e-08
1.825581871e-08
-1.365882395e-08
-2.020016035e-08
1.39503552e-08
1.888074689e-08
-1.398916747e-08
-1.622194355e-08
1.373625231e-08
1.825231553e-08
-1.402099381e-08
-1.373133348e-08
1.474101909e-08
1.36506751e-08
-1.201773365e-08
6.774719021e-10
1.709318697e-09
-2.655385584e-10
-7.304326857e-10
-2.111125815e-09
1.05877152e-09
1.274409647e-09
-3.580425438e-10
-2.014014376e-10
1.951917596e-11
1.263528767e-10
6.216851715e-11
-3.16315322e-11
-1.12897922e-11
2.190436017e-11
2.423907849e-11
-6.742337327e-12
-2.068707008e-11
1.096413955e-11
1.704212343e-11
-3.77448301e-12
-1.420350965e-11
6.644900665e-12
1.149224007e-11
-8.05756854e-09
-1.604829945e-13
1.666776412e-08
-7.991683635e-09
-5.011444545e-09
1.002563396e-08
7.096693943e-09
-1.205024764e-08
-7.743198082e-09
1.392881378e-08
9.488820756e-09
-1.562511251e-08
-1.105756237e-08
1.684095418e-08
1.145903131e-08
-1.719210341e-08
-1.363688172e-08
1.626223995e-08
1.112409022e-08
-1.370126463e-08
-1.163684413e-08
9.446808774e-09
6.375841726e-09
-4.162925561e-09
-4.364718542e-12
-4.468476067e-13
5.910762266e-13
8.373115021e-09
-8.522796428e-10
-9.571650563e-10
-6.910879371e-09
-2.372973144e-10
3.480201673e-09
-2.589969164e-10
-1.258887815e-09
-5.753766945e-10
3.545069013e-10
4.374010796e-10
-2.404245941e-10
-4.441993825e-09
6.047651168e-10
2.866730784e-09
-8.438430663e-10
-3.896303733e-09
7.428779899e-10
4.419181412e-09
-2.658460473e-10
-6.876642088e-10
4.463773179e-10
6.813616783e-10
-5.50466119e-10
-1.588194609e-09
8.004732823e-10
1.773262448e-09
-1.427430226e-09
-3.71629506e-09
2.463126355e-09
9.921244169e-09
-5.472381545e-09
-2.690822231e-08
1.076138292e-08
2.167685976e-08
-1.001889673e-08
-1.278470816e-08
9.210540395e-09
9.097515323e-09
-9.317959669e-09
-1.466549834e-08
1.074102257e-08
1.292249423e-08
-1.3252117e-08
-1.985669854e-08
1.565375156e-08
2.1669819e-08
-1.698062971e-08
-1.8633998e-08
1.780666182e-08
2.30818766e-08
-1.950639539e-08
-1.826640112e-08
2.181877488e-08
2.193627873e-08
-2.207946011e-08
-1.947655955e-08
1.879149108e-08
1.811442647e-08
-1.351010825e-08
-1.079487814e-08
7.247646222e-09
4.682655697e-09
-8.701255752e-10
1.787092739e-11
6.024877722e-11
1.615911344e-11
-9.488978465e-11
-5.92485685e-10
1.592580307e-10
9.681080091e-11
3.467057747e-10
-1.269166967e-10
-7.253390395e-10
2.771177316e-10
1.451123272e-09
-8.181049964e-12
-3.121018135e-09
8.694241685e-10
2.837986909e-09
-1.22835443e-11
-1.388237073e-09
5.666061835e-10
5.857013663e-10
-1.386995091e-11
-8.220728479e-11
2.082394605e-08
-1.721903557e-08
-1.359696376e-08
1.47643054e-08
1.266707516e-08
-1.291655085e-08
-8.513565707e-09
1.357107472e-08
9.205373201e-09
-1.407849434e-08
-1.008840437e-08
1.416442698e-08
9.629521766e-09
-1.361910732e-08
-1.032400969e-08
1.234888609e-08
8.367016529e-09
-1.034493817e-08
-7.961122169e-09
7.758136458e-09
5.164629149e-09
-4.934413533e-09
-3.200377614e-09
2.390772776e-09
1.481970901e-09
-6.643781769e-10
1.354307234e-12
-3.809328036e-12
2.881456976e-13
8.83530273e-10
-9.726227558e-11
-2.454315336e-09
1.168415316e-09
2.930382859e-10
-5.390099303e-11
-6.587698734e-10
1.64491067e-10
5.224953464e-10
-5.095174528e-11
-5.270701481e-10
-3.494337677e-10
5.595492678e-10
4.015610489e-10
-6.821980371e-10
-2.181858602e-09
1.364889175e-09
2.907010227e-09
-2.458520462e-09
-5.673919052e-09
2.666622208e-09
6.511908564e-09
-2.00558667e-09
-1.169729338e-09
2.687516542e-09
2.584480933e-09
-3.682797762e-09
-3.222941791e-09
6.074461869e-09
5.693810541e-09
-1.082249351e-08
-1.787686114e-08
1.707992434e-08
2.05228278e-08
-2.15383575e-08
-1.746545847e-08
1.8430986e-08
1.805711859e-08
-1.628961928e-08
-9.238009431e-09
1.502243017e-08
8.425472326e-09
-1.825189417e-08
-1.33162844e-08
1.407919309e-08
1.719288011e-08
-1.886630995e-08
-2.557699453e-08
2.479163888e-08
3.070745626e-08
-2.840423424e-08
-3.016204841e-08
2.895658071e-08
3.273128113e-08
-2.809161821e-08
-2.603045619e-08
2.719735444e-08
2.201348068e-08
-2.549373499e-08
-1.443419386e-08
2.096417843e-08
8.009052062e-09
-1.342177751e-08
7.982423835e-10
5.044067253e-09
-1.53852347e-09
-2.720138191e-10
-1.98621465e-11
5.679452386e-11
6.787335911e-11
-1.772347488e-11
-5.521116592e-11
8.882816658e-12
8.385729334e-11
7.165945266e-11
-4.67840586e-10
-3.51581244e-10
7.173876199e-10
7.755856363e-10
-1.249711244e-09
1.193025726e-09
3.85026877e-09
-5.654827936e-09
-7.460295005e-10
1.275278298e-08
1.019257901e-08
-2.633925617e-08
-1.932811855e-08
2.965020673e-08
1.572212774e-08
-2.844697785e-08
-1.150502472e-08
2.254416436e-08
7.907195036e-09
-1.572855747e-08
-9.187085364e-09
1.25500344e-08
8.584196309e-09
-1.160780614e-08
-8.453175769e-09
1.025154279e-08
6.980377359e-09
-8.522639137e-09
-6.227140943e-09
6.55206752e-09
4.343413022e-09
-4.545147395e-09
-3.076156317e-09
2.739414955e-09
1.693153127e-09
-1.338804257e-09
-6.261756704e-10
4.565180404e-10
2.405797292e-10
-6.742212153e-11
4.257204039e-12
9.426232941e-13
9.43523264e-12
-1.453292841e-11
-4.29571071e-11
7.991497716e-10
-2.067834142e-09
1.753302761e-09
-1.98043891e-11
7.10918633e-10
-1.845418155e-09
-1.106690494e-11
2.49904425e-09
1.166281399e-09
-3.988942886e-09
-5.390108212e-10
6.4552612e-09
3.787227216e-09
-9.472405042e-09
-5.073108024e-09
9.685038729e-09
6.807758705e-09
-1.059216708e-08
-6.691677105e-09
1.076041684e-08
7.175218828e-09
-1.078506778e-08
-4.922816074e-09
1.207630302e-08
7.166722413e-09
-1.35440565e-08
-8.217932194e-09
1.523492406e-08
9.825662448e-09
-1.761576636e-08
-1.877818718e-08
2.118826821e-08
1.668184323e-08
-2.577594784e-08
-2.093765315e-08
3.624550625e-08
2.806770445e-08
-6.804463362e-08
-1.159022914e-08
8.457472851e-08
3.798274969e-08
-4.258134557e-08
-2.400697985e-08
9.275749425e-09
3.756188366e-08
7.85686407e-09
-3.486867295e-08
3.493707693e-08
3.552029817e-08
-3.270232027e-08
-2.898277179e-08
2.407797921e-08
2.152858662e-08
-1.556262218e-08
-1.259842275e-08
1.037805782e-08
8.38780313e-09
-8.032121441e-09
-4.400718657e-09
4.911121183e-09
3.566231653e-09
-1.339872926e-09
-2.594508492e-10
1.216748137e-10
3.675197164e-10
6.646216976e-11
-2.397226861e-10
-5.89388569e-10
1.523036205e-09
1.089460367e-09
-1.474112057e-10
-1.348142344e-09
1.837091111e-09
1.012511274e-09
-1.754084445e-09
-5.999375908e-10
5.307234192e-09
-4.795614642e-09
-7.163071392e-09
1.202873887e-08
9.16287013e-09
-1.893922517e-08
-1.28862439e-08
2.612283317e-08
8.322694093e-09
-2.814394292e-08
-3.84644783e-09
1.882759001e-08
-3.495443616e-09
-8.521622503e-09
1.251219157e-09
7.399140182e-09
-1.54774406e-09
-1.009958089e-08
-8.444965198e-09
8.426327902e-09
7.897846645e-09
-7.318087194e-09
-5.631999226e-09
6.041912075e-09
4.792313875e-09
-4.573656185e-09
-3.002753647e-09
3.046125359e-09
2.336706716e-09
-1.705666066e-09
-8.967734304e-10
7.560453609e-10
5.164801641e-10
-2.486689715e-10
-8.95715784e-11
4.71429141e-11
4.388479027e-11
-3.302194758e-13
-7.378047702e-12
7.358633919e-12
9.389452423e-12
-9.00281793e-12
-2.678597456e-09
4.420039342e-09
-1.281535029e-08
1.332388567e-08
-2.968509048e-09
6.085862395e-09
-1.329822515e-08
-3.39530661e-09
1.374466514e-08
6.144811979e-09
-1.50238076e-08
-6.119395534e-09
1.68118526e-08
8.001432593e-09
-1.851954365e-08
-8.083367231e-09
2.014824142e-08
9.829150019e-09
-2.298538707e-08
-8.179391817e-09
2.6702603e-08
1.126436383e-08
-3.016155829e-08
-8.647305577e-09
3.10069895e-08
1.163618154e-08
-2.780399788e-08
-1.008514283e-08
2.188794017e-08
1.077476665e-08
-1.651939262e-08
-1.382375507e-08
1.428309718e-08
1.064164442e-08
-1.505665264e-08
-2.302366294e-08
1.778397293e-08
1.631805709e-08
-2.344717311e-08
-5.052859855e-08
3.35880387e-08
3.799150084e-08
-4.417803602e-08
-3.845903113e-08
3.212599197e-08
3.393457009e-08
-3.013239675e-08
-3.092884205e-08
2.632331219e-08
2.414930446e-08
-1.750646605e-08
-1.240990844e-08
8.844337335e-09
5.615836979e-09
-5.199085879e-09
-7.31587188e-09
3.326593538e-08
3.33960782e-08
-8.444183963e-07
-4.303590523e-09
-4.429934026e-07
3.032640874e-08
-1.961207655e-09
-6.581141577e-10
2.207489312e-10
1.327241557e-09
2.516669521e-10
-3.752786527e-09
-1.515789423e-09
6.696190017e-09
3.914156006e-09
-4.852361165e-09
-5.484463703e-09
7.787790415e-09
4.353337304e-09
-9.547900895e-09
-2.010779814e-09
1.361996797e-08
-1.068533537e-08
-9.828677275e-09
1.754713756e-08
1.052185842e-08
-1.959661728e-08
-3.75727038e-09
1.681466803e-08
3.235519855e-09
-1.030510302e-08
3.169301518e-09
4.680264721e-09
-2.01132223e-09
-2.783548626e-09
1.072623663e-09
4.053350455e-09
-1.299169928e-09
-6.391948617e-09
-7.138305898e-09
7.315539091e-09
6.895056944e-09
-5.410479551e-09
-4.254146449e-09
4.126376025e-09
3.533537539e-09
-2.952155534e-09
-2.260753702e-09
2.081842144e-09
2.554983446e-09
-1.183150547e-09
-3.662187202e-10
4.909606006e-10
2.657017117e-10
-4.574222422e-11
-2.812207276e-11
1.027141022e-12
1.728485557e-11
1.013886829e-11
-5.863938998e-12
7.834925103e-12
6.446420604e-12
-8.305001615e-12
-5.302565182e-09
6.018487519e-09
-1.872317575e-08
2.059061303e-08
-8.245893259e-09
9.283262847e-09
-2.141357331e-08
-8.407812209e-09
2.188333542e-08
1.012934535e-08
-2.28468294e-08
-9.367084637e-09
2.471387083e-08
1.142645117e-08
-2.704810208e-08
-1.102578915e-08
2.868997589e-08
1.285715016e-08
-2.83421672e-08
-1.260285679e-08
2.534689254e-08
1.099514357e-08
-2.054007851e-08
-1.10148626e-08
1.556250953e-08
6.481284096e-09
-1.212378615e-08
-8.66031835e-09
1.088764901e-08
5.964658602e-09
-1.063534157e-08
-7.517510401e-09
9.430451616e-09
7.219424892e-09
-7.064175805e-09
-9.927551446e-09
6.566626831e-09
5.997290558e-09
-8.328723571e-09
-2.244591486e-08
1.154795622e-08
1.287389315e-08
-1.509356476e-08
-2.635822623e-08
1.542122353e-08
1.813444496e-08
-1.370605358e-08
-1.709126746e-08
9.696498212e-09
1.091813712e-08
-4.745778592e-09
-2.24526924e-09
1.390052051e-09
7.617116716e-10
-5.164073203e-10
-4.878085952e-09
8.594870998e-10
1.363374183e-09
-2.840376413e-09
-8.435639809e-09
2.537117743e-09
6.405363098e-09
-2.125273938e-09
-2.74806383e-09
4.159721739e-10
5.50351399e-09
7.688726087e-10
-9.675087939e-09
-2.643651423e-09
1.165571708e-08
5.169974973e-09
-9.875283767e-09
-6.660250124e-09
1.131136644e-08
7.217514787e-09
-1.658139076e-08
-1.238597676e-09
1.780482614e-08
-1.445659536e-08
-1.155443997e-08
1.754946764e-08
1.270106074e-08
-1.579802715e-08
-4.369693798e-09
1.082383533e-08
5.431458524e-09
-5.285369248e-09
5.127508053e-10
1.518251587e-09
-1.152828133e-10
-2.39598748e-10
7.781993921e-10
9.028012726e-10
-1.768698193e-12
-3.74921255e-09
-3.456151656e-09
9.909357233e-09
-6.006197482e-12
-8.885637354e-09
-1.081496819e-08
-1.046579264e-09
8.334324351e-09
6.479359894e-09
-2.831290905e-09
6.921144461e-10
3.616172209e-09
-1.28863597e-09
-1.002576253e-10
3.502124374e-10
2.196613426e-10
-6.200383217e-11
-2.175142144e-11
3.667659259e-12
1.771223055e-11
8.665913304e-12
-1.171939717e-11
1.354151409e-11
8.230560752e-12
-9.283001965e-12
-7.907870441e-09
-2.477426039e-08
2.321173902e-08
-1.00985351e-08
1.118037758e-08
-2.409345581e-08
-1.128749353e-08
2.466151794e-08
1.188237773e-08
-2.570049579e-08
-1.326748612e-08
2.788112328e-08
1.382223395e-08
-3.084607159e-08
-1.518324449e-08
3.255691035e-08
1.687326279e-08
-3.044755721e-08
-1.099574425e-08
2.41448433e-08
1.309848903e-08
-1.637287919e-08
-5.177320999e-09
1.04900622e-08
6.657698929e-09
-7.939833111e-09
-5.710236464e-09
8.271904745e-09
7.202990316e-09
-1.012885831e-08
-8.955897073e-09
1.048151713e-08
1.064401214e-08
-7.159356714e-09
-4.605057718e-09
4.811361013e-09
4.723620429e-09
-4.5740618e-09
-7.886913495e-09
5.211195729e-09
5.754538761e-09
-6.027220165e-09
-1.149813971e-08
6.045072841e-09
7.084760206e-09
-4.823730729e-09
-6.021758519e-09
3.014128154e-09
2.377707115e-09
-2.426669689e-09
2.521818975e-09
5.723718459e-09
-1.090777578e-08
-5.821965583e-09
-5.01332958e-10
1.186676472e-10
2.621838171e-10
-1.446085436e-10
-4.672916606e-09
-7.827093041e-11
3.263304964e-09
4.700361039e-10
-1.006372872e-08
-5.500565241e-10
1.458432821e-08
1.854102796e-09
-1.17579551e-08
-3.181431945e-09
1.036334844e-08
4.193332945e-09
-1.267205473e-08
-6.048301109e-09
1.374457438e-08
7.791215109e-09
-1.777580753e-08
2.601648174e-09
1.684982343e-08
-1.274266967e-08
-1.345488363e-08
1.371561312e-08
1.369205793e-08
-1.119424138e-08
-5.614729317e-09
7.328433932e-09
-7.449391713e-09
-2.38754422e-09
-7.759061879e-12
1.80661417e-10
1.434839413e-10
-8.583954735e-12
5.404899035e-13
1.830577338e-13
7.946286789e-14
-4.720412028e-13
6.300763789e-12
-1.764897252e-12
-6.430846411e-12
2.518828138e-12
-7.509215922e-09
-2.64937346e-12
-4.597520456e-12
-2.649305488e-09
-3.159569155e-09
2.512617832e-09
1.483525522e-09
1.865252584e-10
-2.99626597e-10
-9.093479378e-10
4.314636571e-10
-1.170973387e-10
-2.043012576e-11
2.562602018e-11
3.47134726e-11
2.455739566e-12
-1.481234252e-11
3.001966552e-11
1.135279715e-13
-3.541635639e-12
2.561301147e-08
-1.225246193e-08
1.234389666e-08
-2.457354952e-08
-1.188994607e-08
2.33199378e-08
1.124682492e-08
-2.225808236e-08
-1.280833856e-08
2.200883371e-08
1.068595596e-08
-2.308252847e-08
-1.648483426e-08
2.514484402e-08
1.346416918e-08
-2.649296009e-08
-1.555977351e-08
2.520832506e-08
1.581944511e-08
-2.128863157e-08
-9.815359391e-09
1.669297655e-08
1.256191188e-08
-1.340483356e-08
-9.343270057e-09
1.207391579e-08
1.065749234e-08
-1.191288859e-08
-1.111891344e-08
1.100951424e-08
1.013235432e-08
-8.320410104e-09
-5.392062247e-09
6.152135357e-09
5.854362263e-09
-5.15290754e-09
-5.017450384e-09
4.608690009e-09
4.745292527e-09
-4.183257934e-09
-4.683216858e-09
3.584048085e-09
3.663703287e-09
-3.074758071e-09
-6.191943395e-10
4.05412624e-09
3.840138795e-11
-7.588834686e-09
9.203872585e-09
7.070151723e-09
-4.767720139e-09
-2.955974643e-09
-2.717589392e-10
1.70460624e-10
3.709658591e-10
-3.284352366e-11
-2.222888134e-09
-5.791716253e-11
1.43381313e-09
4.023389981e-10
-1.585553026e-08
-5.862595574e-10
1.056608462e-08
3.432787601e-09
-8.943625195e-09
-4.43940922e-09