/*--------------------------------*- C++ -*----------------------------------*\
| =========                 |                                                 |
| \\      /  F ield         | OpenFOAM: The Open Source CFD Toolbox           |
|  \\    /   O peration     | Version:  2.1.x                                 |
|   \\  /    A nd           | Web:      www.OpenFOAM.org                      |
|    \\/     M anipulation  |                                                 |
\*---------------------------------------------------------------------------*/
FoamFile
{
    version     2.0;
    format      ascii;
    class       volVectorField;
    location    "1.4";
    object      Uf;
}
// * * * * * * * * * * * * * * * * * * * * * * * * * * * * * * * * * * * * * //

dimensions      [0 1 -1 0 0 0 0];

internalField   nonuniform List<vector> 
2828
(
(-2.057728988 0 0.06414515077)
(-0.3859717518 0 -0.03586438317)
(0.01727825408 0 -0.03063100087)
(0.09367921756 0 0.001873949468)
(0.1256450996 0 0.05475151787)
(-0.2463456121 0 0.3564765706)
(-0.6556865035 0 -0.5717613404)
(-0.9617556334 0 -0.7175514122)
(-1.243977468 0 -0.84358292)
(0.2822256679 0 -0.1999814113)
(-0.6676848504 0 -0.5235499293)
(-0.2532290225 0 -0.225793546)
(0.1327667057 0 -0.00810165244)
(0.5756777008 0 -0.3695793129)
(1.231539582 0 -0.8646001753)
(1.473422219 0 -1.033839324)
(1.554478166 0 -1.044140433)
(-0.05048691933 0 0.3609533127)
(-0.1779335377 0 0.3653997386)
(-0.1559908943 0 0.3318840761)
(-0.4457433151 0 -0.01713395098)
(-1.172120199 0 -0.9471391542)
(-1.377991561 0 -1.022569049)
(-0.5256179292 0 -0.4623604103)
(-0.7557278198 0 -0.6523467861)
(-0.2930224733 0 -0.4203252404)
(0.6168492253 0 -0.4122156616)
(1.085174767 0 -0.753355022)
(1.360530351 0 -0.9454788094)
(1.484932529 0 -1.013681222)
(1.532161704 0 -1.01036424)
(0.1492296684 0 1.02120616)
(-0.0222678129 0 2.590366535)
(0.5920429419 0 0.4147602499)
(0.2178340657 0 0.43983679)
(0.04435661913 0 0.4465593044)
(-0.0313027559 0 0.3773216387)
(-0.6475006184 0 0.4046043663)
(-0.1085700543 0 0.06563344169)
(0.1176059633 0 -0.5748204715)
(0.8933803994 0 0.4662997642)
(-0.5345710608 0 -0.6970104272)
(0.3952103073 0 -0.5180026101)
(0.9475524389 0 -0.6548301052)
(1.222930148 0 -0.8472865717)
(1.381849605 0 -0.9477836011)
(1.461082067 0 -0.9748315765)
(1.461699211 0 -0.9506358972)
(0.1731762559 0 -0.1588380156)
(0.2208254981 0 -0.09475926596)
(0.1888705044 0 0.3204085995)
(0.08829271778 0 0.1591417958)
(1.504897171 0 1.285530022)
(0.7811462982 0 0.565006286)
(0.384054715 0 0.4989042034)
(0.1479901561 0 0.496201745)
(0.05136894183 0 0.4331369921)
(-0.9527360506 0 0.6705609401)
(-0.9935991791 0 1.073801108)
(-0.4689843053 0 -0.3793807722)
(-0.5313483572 0 -0.8835503522)
(-0.421577935 0 -0.7081627278)
(0.6894564324 0 -0.5299958547)
(1.088592452 0 -0.7502386948)
(1.266270564 0 -0.8697777717)
(1.367057983 0 -0.9217041452)
(1.401734195 0 -0.9187149312)
(1.316813321 0 -0.8510545884)
(0.1586562024 0 -0.1585403876)
(0.1800954859 0 -0.105017697)
(0.2070566264 0 0.03567225549)
(-0.09138398868 0 0.1263133568)
(-0.1215852295 0 0.1439205829)
(2.3504833 0 2.635926084)
(1.824331797 0 1.789528386)
(1.291823058 0 1.142586497)
(0.8574425108 0 0.8319447305)
(0.5212638557 0 0.7106953245)
(0.06862563512 0 -0.2918957826)
(-0.6997550626 0 1.16697365)
(-0.6970194803 0 2.323633714)
(-0.5773533169 0 2.38583214)
(-0.1271011776 0 1.205367128)
(0.6988072824 0 -0.4203677905)
(0.8832134755 0 -0.546759854)
(1.144602308 0 -0.7733975265)
(1.267369833 0 -0.8606513134)
(1.322028952 0 -0.8765680243)
(1.29726445 0 -0.8401919159)
(1.063996337 0 -0.6876690304)
(0.04481902794 0 -0.1241247672)
(0.05064728747 0 -0.06284703103)
(0.01059354906 0 0.00456777234)
(-0.080962057 0 0.1240167231)
(-0.150807739 0 0.1916025223)
(-0.2096860529 0 0.2749599261)
(-0.4139959985 0 0.9255659022)
(2.318194562 0 2.515915068)
(2.095153022 0 2.229116076)
(1.76423841 0 1.80285705)
(1.416265015 0 1.43160025)
(1.031006408 0 1.146139421)
(0.522715982 0 0.9407920888)
(0.5972043886 0 0.8196945811)
(0.4111495649 0 0.8447593842)
(0.4061238322 0 -0.2817489562)
(0.6980924622 0 -0.446444426)
(0.8635839552 0 -0.522177009)
(1.002971398 0 -0.6344755003)
(1.164391078 0 -0.7789409776)
(1.238291696 0 -0.8296720181)
(1.24423324 0 -0.8137178719)
(1.137996245 0 -0.7326039986)
(0.7233922495 0 -0.4753047388)
(-0.1431242469 0 0.2200995495)
(-0.133992625 0 0.2599033335)
(-0.3095902048 0 0.3764058177)
(-0.3992666086 0 0.4918440334)
(-0.400299145 0 0.5686775193)
(-0.3503063276 0 0.5778677843)
(-0.1647014671 0 -0.138478754)
(1.387355867 0 1.771304679)
(1.715482508 0 2.033057988)
(1.944146845 0 2.158914308)
(1.889738512 0 2.017603035)
(1.669430817 0 1.776339516)
(1.09062024 0 1.400012392)
(0.5490693074 0 1.127724021)
(0.3683233439 0 1.009725893)
(0.3326708458 0 0.8951336929)
(0.5202937036 0 -0.09811673448)
(0.811434359 0 -0.5396323536)
(0.955434323 0 -0.6069711382)
(1.063700051 0 -0.6916616088)
(1.157231905 0 -0.7702656789)
(1.183491599 0 -0.7820052981)
(1.133922357 0 -0.7339097057)
(0.9445272602 0 -0.6058886484)
(0.4922615691 0 -0.3161675962)
(-0.2211000725 0 0.3629840458)
(-0.2143506214 0 0.5770669607)
(-0.3455469378 0 1.072700022)
(-0.2962338923 0 1.135544577)
(-0.2487643161 0 1.062808158)
(-0.1944645695 0 0.9481221467)
(-0.1302236963 0 0.8147886153)
(-0.003831861619 0 0.1554471669)
(1.279621196 0 1.607519999)
(1.417233414 0 1.74542264)
(1.629646435 0 1.911790778)
(1.391481215 0 1.734439975)
(0.988112072 0 1.375303435)
(0.7074544225 0 1.188201769)
(0.5953903106 0 1.078313654)
(0.5213636067 0 0.9676210647)
(0.4810689087 0 0.8308960998)
(0.6993459496 0 -0.5728253716)
(0.8623851742 0 -0.6062850796)
(0.9715145758 0 -0.6652742874)
(1.018310812 0 -0.7221703108)
(1.059453511 0 -0.731500094)
(1.105805604 0 -0.7188636385)
(0.99865335 0 -0.6416909765)
(0.7455890023 0 -0.47456621)
(0.4795533763 0 0.2073162603)
(0.4380728405 0 0.7775428852)
(0.3000065113 0 0.8356065086)
(0.2100845155 0 0.8173644301)
(0.1372770323 0 0.7495263609)
(0.1068159067 0 0.6450952747)
(0.07576936828 0 0.5228190139)
(0.05838594462 0 0.4392923476)
(0.01647440819 0 0.340137266)
(0.07872509324 0 -0.1768946301)
(0.08758216855 0 -0.1026102343)
(0.9842489811 0 1.267727095)
(0.6221060557 0 0.9165873675)
(0.5898495225 0 -0.7979276295)
(0.6129872183 0 1.852330309)
(0.7860806353 0 0.95798044)
(0.7410255672 0 0.9051037425)
(0.6860520613 0 0.9321419066)
(0.5682311164 0 0.8988242913)
(0.5312774903 0 0.4793460053)
(0.7673534655 0 -0.6380634857)
(0.8621630357 0 -0.6678257532)
(0.907104311 0 -0.7182712871)
(0.8828533527 0 -0.7221103516)
(0.8905336562 0 -0.624883626)
(0.9855262394 0 -0.5294348027)
(0.8509738078 0 -0.5410031925)
(0.5520452049 0 -0.3375659497)
(0.2890581598 0 0.3092276731)
(-0.3041656912 0 0.4907772066)
(-0.2697774852 0 0.4605499315)
(-0.1642582134 0 0.3964565471)
(-0.09723976894 0 0.2783952275)
(0.3468475184 0 -0.4576530369)
(0.5727017512 0 -0.8710608406)
(0.7120535114 0 -1.093129747)
(0.7787733482 0 -1.180196868)
(0.1651962751 0 -0.2081115209)
(0.1653017478 0 -0.1238056806)
(0.4183342104 0 0.4992105476)
(0.3501033463 0 -0.000766791164)
(0.6431001123 0 0.2505719991)
(0.8581954167 0 0.5804187516)
(0.8182938904 0 0.6088461586)
(0.7231309651 0 0.6324175215)
(0.676347342 0 0.7077659238)
(0.6036282169 0 0.249338273)
(0.6397116127 0 -0.3994288001)
(0.77939268 0 -0.6571165256)
(0.8604597894 0 -0.6935263643)
(0.893641056 0 -0.7319922685)
(0.8742249469 0 -0.694799272)
(0.8592967003 0 -0.4680612647)
(0.7616011625 0 -0.3805918031)
(0.6975576217 0 -0.3985474271)
(0.3732068428 0 -0.1772787295)
(0.3092316628 0 0.2769693167)
(-0.8104530688 0 1.225740505)
(-0.5314262635 0 1.056874084)
(0.2548469109 0 -0.5166520603)
(0.477572909 0 -0.7258499996)
(0.5927557809 0 -0.9128450868)
(0.6803566784 0 -1.044054507)
(0.7378930508 0 -1.113845434)
(0.7746546785 0 -1.142247133)
(0.2419998909 0 -0.2109352378)
(0.2313774107 0 -0.1540968384)
(0.2192403725 0 0.1000343307)
(0.3104690452 0 -0.07803648629)
(0.4121132809 0 0.05844236015)
(0.467180595 0 0.1343882934)
(0.5866811771 0 0.24066525)
(0.6477207505 0 0.2276467577)
(0.8964155791 0 -0.009936832632)
(0.5908968929 0 -0.4051084293)
(0.6329837451 0 -0.6004440762)
(0.7816981159 0 -0.6285618241)
(0.8651668034 0 -0.6589112712)
(0.9163654924 0 -0.6716512877)
(0.8815108278 0 -0.6307856821)
(0.5565703693 0 -0.5510502725)
(-0.658008082 0 -0.5966293474)
(0.5170310707 0 -0.3261560296)
(0.2480814918 0 0.1243986397)
(0.529766119 0 -0.0863509375)
(1.089970881 0 1.735289624)
(0.8308126701 0 1.950243813)
(0.471879483 0 -0.6190953222)
(0.5843333908 0 -0.9037214294)
(0.6496668864 0 -0.9778786827)
(0.6982745171 0 -1.031007937)
(0.729075092 0 -1.05187334)
(0.7358928627 0 -1.041078681)
(-0.4544579285 0 0.6734266828)
(-0.0008120790341 0 -0.5294184909)
(-0.1358515573 0 -0.5587805751)
(0.2839123679 0 -0.06957539622)
(0.3249180688 0 -0.07670766135)
(0.3720245222 0 -0.02459822256)
(0.2531789205 0 -0.2260938843)
(0.4902548282 0 -0.2437273432)
(1.112925248 0 -0.2496333305)
(0.7232149049 0 -0.4429046363)
(0.56355707 0 -0.6193424635)
(0.6877311147 0 -0.5815402382)
(0.8084201406 0 -0.5806286946)
(0.8210851662 0 -0.6046167316)
(0.7512949212 0 -0.6800850506)
(0.7425614323 0 -0.701968668)
(0.4985617541 0 -0.6787398914)
(-0.1098241074 0 -2.316465098)
(0.2000851909 0 0.801267931)
(0.1389152725 0 0.9209591911)
(0.1791489662 0 0.7736741352)
(1.055437474 0 1.060976516)
(0.5361788967 0 -0.6017918325)
(0.5722603432 0 -0.7435673096)
(0.6111093556 0 -0.9153511353)
(0.6464750279 0 -0.9433237081)
(0.6625724202 0 -0.9510039156)
(0.6506657146 0 -0.9224288489)
(0.576074186 0 -0.8123854937)
(-0.4047648851 0 0.5338918859)
(-0.2208213893 0 -1.120688073)
(-0.2640358433 0 -1.011816196)
(-0.2579449609 0 -0.8040013632)
(0.3103874864 0 -0.08931997163)
(0.3190216196 0 -0.1544591284)
(0.3751994199 0 -0.1194405471)
(0.3039108758 0 -0.3457711286)
(0.4093944706 0 -0.4352216922)
(0.6795495997 0 -0.4999469338)
(0.5445611712 0 -0.584163432)
(0.5944415304 0 -0.5756549671)
(0.7314603073 0 -0.5444515419)
(0.7406247296 0 -0.5722116187)
(0.6693427027 0 -0.5759214241)
(0.531484845 0 -0.6388840033)
(0.4293352427 0 -0.8846838947)
(-0.6576142634 0 -0.7757047528)
(1.140624034 0 -0.8759350887)
(0.3165317511 0 0.4460731323)
(0.2405445069 0 0.4400787564)
(0.4673147496 0 -0.4478597524)
(0.5213982491 0 -0.6214377165)
(0.4775296563 0 -0.661076372)
(0.4853411351 0 -0.8035608692)
(0.6027011123 0 -0.8671222505)
(0.5984181143 0 -0.8474247393)
(0.5741852027 0 -0.8092123137)
(0.5011123614 0 -0.7066279465)
(0.3358879454 0 -0.4734222209)
(-0.1078529024 0 0.416081685)
(0.2767332334 0 -0.8647448277)
(0.3032962175 0 -0.7054485497)
(0.2378513384 0 -0.4646825719)
(0.2172580834 0 -0.3716384367)
(0.2616361184 0 -0.3841277755)
(0.2985738424 0 -0.4371179731)
(0.3242118366 0 -0.5006569746)
(0.3579707901 0 -0.5322387873)
(0.4426504218 0 -0.5605114356)
(0.5084920627 0 -0.7629227789)
(0.4456595225 0 -1.801892955)
(0.555122696 0 0.7681289862)
(0.6009617266 0 -0.6178738871)
(0.5782391348 0 -0.6040913941)
(0.5610064817 0 -0.8983861662)
(0.5501406302 0 -1.100603101)
(1.235768007 0 -0.02706487539)
(1.299347861 0 0.9895298372)
(1.156079783 0 0.8210144619)
(0.4195097923 0 0.04163961017)
(0.424423034 0 -0.585052845)
(0.2725637948 0 -0.619696125)
(-0.1027468369 0 -0.4373511875)
(-0.1952078409 0 -0.3980638897)
(0.5563921414 0 -0.6963158814)
(0.5415157306 0 -0.6753044716)
(0.4789903172 0 -0.5910250078)
(0.3532547635 0 -0.453355362)
(0.2175326714 0 -0.2276893962)
(0.247886552 0 0.2856495811)
(0.2982349285 0 -0.6326947919)
(0.3072577084 0 -0.6385371756)
(0.2697838367 0 -0.5863404)
(0.2690411137 0 -0.5607033869)
(0.2841788781 0 -0.580822135)
(0.2634235689 0 -0.6434689688)
(0.2444418782 0 -0.6506513165)
(0.2992925741 0 -0.5641179409)
(0.4238199317 0 -0.5598692134)
(0.5167147023 0 -0.5454899444)
(0.7664186345 0 -0.6476757064)
(0.5772549119 0 -0.4725061338)
(0.5277870167 0 -0.5692595969)
(0.4298465107 0 -0.6439481988)
(0.865942247 0 -6.825269712)
(1.369776362 0 2.762454757)
(2.391252442 0 0.104925084)
(1.72526768 0 1.086415139)
(1.2860819 0 0.7845777106)
(0.5022729769 0 -0.1463039348)
(0.3268082867 0 -0.57967834)
(0.07847757639 0 -0.5338439687)
(-0.286325044 0 -0.4148660113)
(-0.08064495308 0 -0.3485934442)
(0.4843980043 0 -0.3981239693)
(0.5161662524 0 -0.4999095533)
(0.4932676244 0 -0.3777411234)
(0.2963680394 0 -0.2675571406)
(0.391183403 0 0.05333011016)
(0.1880983887 0 0.6562760168)
(0.2536338046 0 -0.5871387771)
(0.2847033456 0 -0.6129622637)
(0.285849113 0 -0.6272956526)
(0.2882271386 0 -0.6663631234)
(0.2955048216 0 -0.7375636126)
(0.3057034852 0 -0.7827983193)
(0.277882677 0 -0.741458418)
(0.3103250505 0 -0.6195071385)
(0.397671145 0 -0.5465169869)
(0.4730456025 0 -0.4993748624)
(0.5388566131 0 -0.4607164996)
(0.5342921969 0 -0.4326082299)
(0.4856018237 0 -0.4266569548)
(0.3370049541 0 -0.549606821)
(0.8872892014 0 -0.6556802368)
(1.554052969 0 -0.6927702684)
(2.801405518 0 0.1419114856)
(1.859941073 0 0.8494188852)
(0.9574623101 0 0.6280572117)
(0.4901286297 0 -0.4027006019)
(0.3804360103 0 -0.5641299693)
(0.2171472601 0 -0.4834776932)
(-0.09085164367 0 -0.3868533167)
(-0.6930442315 0 -0.3698034433)
(0.008901852579 0 -0.3558012347)
(0.2077135243 0 0.2170189934)
(0.4694171557 0 -0.2291529887)
(0.07565740915 0 -0.1691050012)
(0.3452542467 0 -0.1366736337)
(1.327381651 0 0.6675648798)
(0.2747409328 0 -0.6361226219)
(0.2943210625 0 -0.6495688836)
(0.3109255362 0 -0.6705563483)
(0.3448059208 0 -0.7237926913)
(0.4034204419 0 -0.8337082586)
(0.458510607 0 -0.9174862828)
(0.50391873 0 -0.8266379334)
(0.5146989486 0 -0.5729065281)
(0.5197444849 0 -0.5188861545)
(0.5107020613 0 -0.5116833754)
(0.490900801 0 -0.4292471632)
(0.4837951893 0 -0.3947928353)
(0.4213676649 0 -0.3833485465)
(-0.6684195171 0 -0.5225000545)
(0.9361936995 0 -0.3095801672)
(2.764417014 0 0.5196976105)
(2.98119473 0 0.220689355)
(1.633591362 0 0.6637305826)
(0.778768305 0 0.5276579242)
(0.5405558424 0 -0.4754091805)
(0.4823545053 0 -0.5166440598)
(0.3370843442 0 -0.412264171)
(0.1805215798 0 -0.2342078811)
(0.07938137502 0 -0.3682500233)
(-1.017924497 0 0.6701957694)
(0.2019754063 0 -0.1096597116)
(-0.03760520136 0 -0.07898266052)
(0.100438643 0 -0.04840081759)
(0.2883775484 0 -0.1664823082)
(0.7935440983 0 0.22495444)
(0.3230834487 0 -0.6806790964)
(0.3306799754 0 -0.6958782207)
(0.3502308934 0 -0.7184602461)
(0.4271206131 0 -0.7892863855)
(0.5402390643 0 -0.854676708)
(0.6257378788 0 -0.794443633)
(0.5979709839 0 -0.6255489551)
(0.5428327678 0 -0.5649919428)
(0.5330118533 0 -0.5255108649)
(0.4951277047 0 -0.4446444799)
(0.4526798446 0 -0.3992270893)
(0.004603045179 0 -0.4790185494)
(-0.8101757649 0 -0.6601980576)
(0.7404334981 0 -0.1590072593)
(3.350535104 0 0.7139750228)
(2.704174951 0 0.4257216668)
(1.214086294 0 0.5587350214)
(0.1981443636 0 0.02246059909)
(0.4883312101 0 -0.4088777204)
(0.5727716683 0 -0.4636936056)
(-2.153669289 0 0.9375883093)
(0.3918151413 0 -0.1976565371)
(0.1506364971 0 -1.059117892)
(-0.3887952458 0 2.916012831)
(-0.1632000926 0 2.11977162)
(0.144731791 0 0.1515789647)
(0.1702990613 0 0.04773164617)
(0.1702539985 0 0.09970152985)
(0.2864242308 0 0.2840375302)
(0.3237192609 0 -0.6867940411)
(0.3225712378 0 -0.6982311592)
(0.318926149 0 -0.7013733016)
(0.3427137744 0 -0.7087357502)
(0.4513960366 0 -0.7436079104)
(0.550193519 0 -0.7221111525)
(0.526327729 0 -0.6151797576)
(0.4501660033 0 -0.5499550924)
(0.4461736876 0 -0.4781035531)
(0.3661299034 0 -0.4477064877)
(0.1801466996 0 -0.8558760399)
(-0.03003989425 0 -1.214572045)
(-0.3432699041 0 -1.188589312)
(0.06592848423 0 0.7783208044)
(0.6250993516 0 0.6185589342)
(0.4749207169 0 -0.2164771522)
(0.3137043162 0 -0.2168705909)
(0.03425710091 0 -0.5282322412)
(0.2633711257 0 -0.4209086846)
(0.3953888584 0 -0.2471303419)
(2.637084817 0 0.7297443717)
(0.5349249017 0 0.2236673806)
(0.1260687928 0 0.08542785857)
(-0.06621549587 0 -0.2046724522)
(-0.0283275811 0 0.06896703922)
(0.03387268966 0 0.1183327218)
(0.08632397196 0 0.1262784527)
(0.1205777922 0 0.1969219133)
(0.2228656769 0 0.2862015284)
(0.3168780269 0 -0.6801662169)
(0.3009591483 0 -0.6799603093)
(0.2925528641 0 -0.6671730333)
(0.2816869308 0 -0.6368824271)
(0.2851052734 0 -0.5926928746)
(0.3406972559 0 -0.5774581669)
(0.3498703432 0 -0.5303455155)
(0.3254368236 0 -0.4652364989)
(0.3035088934 0 -0.4184150559)
(0.2593677449 0 -0.4847891592)
(0.2612545735 0 -0.5944117616)
(0.3303001323 0 -0.6565333563)
(0.4515539857 0 -0.5603294147)
(0.4243940222 0 -0.3767103896)
(0.7273774855 0 -0.3728408359)
(0.1946044127 0 -0.2930962162)
(-0.08022069218 0 -0.6120368654)
(-0.0317081584 0 -0.6026966259)
(0.04843773619 0 -0.5988709971)
(0.1222704274 0 -0.4746978107)
(0.2370061377 0 -0.2567263684)
(0.2387929666 0 0.01359686941)
(0.2028138425 0 0.2260559479)
(-0.2966840504 0 -0.3453145067)
(-0.08224553168 0 -0.2250364451)
(0.1148357005 0 -0.05544862141)
(0.1301394076 0 -0.03331344538)
(0.1375080531 0 0.06845700715)
(0.3133880176 0 -0.6532665467)
(0.3204151213 0 -0.6380918033)
(0.3383356176 0 -0.6131540161)
(0.3404089782 0 -0.5605344202)
(0.3481022362 0 -0.5118085042)
(0.3705374559 0 -0.4773067105)
(0.3580110423 0 -0.4271097582)
(0.2921922093 0 -0.4495328308)
(0.2659850013 0 -0.5255864831)
(0.2583729229 0 -0.5582467091)
(0.2670238883 0 -0.5564161364)
(0.292139988 0 -0.5109260271)
(0.2365029649 0 -0.453177935)
(0.523618079 0 -0.247677109)
(-0.1706877529 0 -0.3452246327)
(-0.07088559682 0 -0.1633544228)
(-0.1790863778 0 -0.189665954)
(-0.417944087 0 -0.4330170908)
(-0.5675056429 0 -0.5105174993)
(-0.6822807466 0 -0.5911261292)
(-0.7577566622 0 -0.6604827092)
(-0.7114398536 0 -0.6822009356)
(-0.565214222 0 -0.6172872527)
(-0.4130174591 0 -0.4646648553)
(-0.2512521936 0 -0.1231545385)
(0.1184231754 0 -0.1163307506)
(0.1366126595 0 -0.04419452669)
(0.3578959911 0 -0.5935639595)
(0.4047054325 0 -0.6029624178)
(0.438304889 0 -0.6174597715)
(0.4525943509 0 -0.603336052)
(0.4441618932 0 -0.5469316061)
(0.4322225453 0 -0.4866979652)
(0.3976330478 0 -0.4352332198)
(0.3317150214 0 -0.4499974304)
(0.297366265 0 -0.507871243)
(0.2702987218 0 -0.5223370748)
(0.2246183469 0 -0.4932185557)
(0.1531316298 0 -0.4482687361)
(0.05636345464 0 -0.3953818241)
(0.01623311626 0 -0.3273169185)
(-0.1219118745 0 -0.2474617085)
(-0.2361116792 0 -0.2148031817)
(-0.2720002489 0 -0.1990870216)
(-0.3808323748 0 -0.3070306238)
(-0.4825431928 0 -0.3928664293)
(-0.5779518011 0 -0.4896257535)
(-0.6729146809 0 -0.6145231714)
(-0.7202446066 0 -0.7321132333)
(-0.6943569968 0 -0.7535760236)
(-0.5871756758 0 -0.6692956665)
(-0.2414793341 0 -0.3455319875)
(0.1941211467 0 -0.1425518968)
(0.4832252164 0 -0.5909812172)
(0.5005705784 0 -0.6300431149)
(0.5316736501 0 -0.6472711864)
(0.54511342 0 -0.6249979285)
(0.5190770093 0 -0.5588337)
(0.4641987937 0 -0.4833253462)
(0.3927238509 0 -0.4396200341)
(0.3473009912 0 -0.4584858873)
(0.3242927088 0 -0.4689028313)
(0.2903213918 0 -0.4373281365)
(0.2356649006 0 -0.3795389318)
(0.1474576864 0 -0.3134643112)
(-0.01175179369 0 -0.2706179874)
(-0.04877915981 0 -0.2155356508)
(-0.07564179769 0 -0.1576581923)
(-0.1197338222 0 -0.1174714113)
(-0.2377325321 0 -0.2185491984)
(-0.3562452182 0 -0.2851952129)
(-0.4665898876 0 -0.3788241182)
(-0.6145336459 0 -0.5260208023)
(-0.751235179 0 -0.7219430088)
(-0.8017249454 0 -0.8433438517)
(-0.7813505572 0 -0.8695327773)
(-0.5767404819 0 -0.6921117709)
(-0.1784479282 0 -0.3305964226)
(0.486203472 0 -0.5816072179)
(0.499447976 0 -0.6138469326)
(0.5252013521 0 -0.6451033476)
(0.544728471 0 -0.6460855922)
(0.5596710702 0 -0.6042552414)
(0.5356872074 0 -0.5376371585)
(0.4612846717 0 -0.4519483993)
(0.3942935191 0 -0.4041253436)
(0.3573197159 0 -0.3945306339)
(0.3195472886 0 -0.3657656541)
(0.2554869021 0 -0.3085435787)
(0.1543818231 0 -0.2531211329)
(0.1059353023 0 -0.2371616187)
(0.09994329554 0 -0.184989155)
(0.1028361512 0 -0.1241044541)
(0.01781785124 0 -0.1248593773)
(-0.1495084665 0 -0.265968926)
(-0.2049751364 0 -0.1835536334)
(-0.3115154109 0 -0.2214451156)
(-0.4653400101 0 -0.3487593081)
(-0.7056939793 0 -0.6070355827)
(-0.855610635 0 -0.8458974489)
(-0.8961247322 0 -0.9707272456)
(-0.9476103211 0 -1.044394088)
(0.4886355621 0 -0.6038539983)
(0.5252593429 0 -0.6408816986)
(0.546516138 0 -0.6286952021)
(0.5597474392 0 -0.5766479579)
(0.5482726967 0 -0.5329431594)
(0.5137690894 0 -0.4668820977)
(0.4435118522 0 -0.3796883589)
(0.3914111031 0 -0.3266663582)
(0.3468363019 0 -0.2908176838)
(0.2942305159 0 -0.2440681026)
(0.2413048527 0 -0.2150221318)
(0.200708361 0 -0.2228139588)
(0.1854404797 0 -0.1819821666)
(0.1722832957 0 -0.1488151496)
(-0.02264338409 0 -0.06033835734)
(-0.09238552666 0 -0.2137161494)
(-0.2773195695 0 -0.1810952998)
(0.5408926386 0 -0.009401762234)
(-0.1791988437 0 -0.1090764091)
(-0.5213144152 0 -0.3504581841)
(-0.8545823987 0 -0.7572314068)
(-0.9913101436 0 -0.8704252047)
(0.5609871377 0 -0.6823813033)
(0.572764065 0 -0.6135498698)
(0.5805438419 0 -0.5253352558)
(0.5582739909 0 -0.472142526)
(0.5388219558 0 -0.4552079339)
(0.4824652899 0 -0.3793470939)
(0.4291040567 0 -0.2996395116)
(0.3813892542 0 -0.2472787416)
(0.3378905152 0 -0.2115790966)
(0.3049298529 0 -0.1966058992)
(0.2649628823 0 -0.2028685092)
(0.2564459793 0 -0.1673218988)
(0.2477522765 0 -0.1361718975)
(0.2396267522 0 -0.4004195665)
(0.2488989368 0 -0.503858494)
(0.6276136881 0 -0.4841632147)
(0.2307108844 0 -0.0583227087)
(0.01574373601 0 0.02996330759)
(-0.06625832214 0 0.0583599397)
(-0.4137481845 0 0.007956909113)
(0.6318301448 0 -0.4975953332)
(0.5788772441 0 -0.4518700086)
(0.5507184645 0 -0.4496544346)
(0.515368132 0 -0.3882927902)
(0.4587564658 0 -0.3073359139)
(0.4023884222 0 -0.2460377661)
(0.363343574 0 -0.2104240563)
(0.3386282747 0 -0.1879991168)
(0.305214059 0 -0.1876368174)
(0.3034450313 0 -0.1534306726)
(0.2975520222 0 -0.104958608)
(1.695813326 0 -0.8239079446)
(0.8741877477 0 -0.1364327152)
(0.3933897981 0 -0.08406602119)
(0.2004758652 0 -0.07791380406)
(0.07752203709 0 0.04309311269)
(0.07767096558 0 0.0971581044)
(0.5717720292 0 -0.4578132329)
(0.5568155518 0 -0.4497902935)
(0.5426219162 0 -0.4013433072)
(0.4848008077 0 -0.3255509777)
(0.4230578635 0 -0.2592445599)
(0.391792049 0 -0.2218238304)
(0.3641512249 0 -0.2070365541)
(0.3347437036 0 -0.1968652634)
(0.3346489418 0 -0.1640655556)
(0.3779783943 0 -0.1277557694)
(1.305077531 0 -0.5363740531)
(0.3189586912 0 -0.1274817981)
(0.2231415484 0 -0.08902199082)
(0.1997403108 0 -0.08575355882)
(0.5083255705 0 -0.3344371059)
(0.4696395908 0 -0.2807005867)
(0.4346738606 0 -0.2576154852)
(0.4090944588 0 -0.2539487929)
(0.3765330636 0 -0.2363197136)
(0.3746266208 0 -0.21218288)
(0.5182831228 0 -0.2412909397)
(0.7792529193 0 -0.2994450935)
(0.2398960978 0 -0.1255523436)
(-0.8020896634 0 -0.615541276)
(-0.907974082 0 -0.6613094673)
(-0.9926743874 0 -0.6912425312)
(-1.109960626 0 -0.7327512736)
(-1.455239104 0 -0.6685362219)
(-1.695881233 0 -0.6173059847)
(-1.205367682 0 -0.02068849346)
(-0.4824617235 0 -0.1935420105)
(-0.69036721 0 0.2948373036)
(-0.5303100201 0 -0.3796870047)
(-0.4059195918 0 -0.3005606913)
(-0.2326919676 0 -0.06121144808)
(0.0133802911 0 -0.0655240625)
(0.08646064978 0 -0.01061410999)
(0.07889503749 0 0.0002722317602)
(0.1066511487 0 0.00553904609)
(0.1240408686 0 0.01501869213)
(0.1228748919 0 0.009413294306)
(0.1338379946 0 0.05201496852)
(0.1068766172 0 0.06553116707)
(-0.07082698697 0 -0.2525878352)
(-0.4019183417 0 -0.2889430416)
(-0.3799648244 0 -0.9339631119)
(-0.228136948 0 0.2879082351)
(-0.217167106 0 0.2766983492)
(-0.1919126876 0 0.312146433)
(-0.3404621036 0 0.2237771675)
(-0.3839582193 0 0.08873037011)
(-0.5882735787 0 -0.4922563426)
(-0.88227749 0 -0.719472686)
(-0.800934617 0 -0.6271294202)
(1.485737711 0 -1.026365127)
(1.530625948 0 -1.031242887)
(1.52820845 0 -1.042309279)
(1.547985584 0 -1.030376848)
(1.57220877 0 -1.037907938)
(1.572893261 0 -1.061768611)
(0.4116169779 0 0.5118928992)
(-0.1080940494 0 0.7696324843)
(-0.08183456345 0 0.4701031228)
(-0.08265904228 0 0.4225443917)
(-0.1317609494 0 0.4030564015)
(-0.09515422095 0 0.3923389042)
(0.2070992348 0 0.4836704217)
(0.1202037935 0 1.135612477)
(-0.01041852771 0 2.496278877)
(0.1348873097 0 0.8321622296)
(-0.7171807405 0 0.1683676485)
(0.6997508937 0 0.2474043848)
(0.7012465266 0 0.2901895271)
(0.5854297167 0 0.3820157415)
(0.4015885165 0 0.4308675746)
(0.3851801658 0 0.4677189678)
(0.2085715127 0 0.1439791187)
(0.01116105339 0 0.1272137466)
(0.1249672153 0 0.210391025)
(0.002828816693 0 0.132127376)
(-0.002931656278 0 0.1421484148)
(-1.211136175 0 -0.07477911083)
(1.573213827 0 1.224634469)
(1.574717132 0 1.282722686)
(-0.1300731418 0 0.1594617567)
(-0.1470347244 0 0.1820030981)
(-0.004807614386 0 0.3467911195)
(2.405733855 0 2.584131996)
(2.402084153 0 2.633094829)
(-0.2884432363 0 0.4117975661)
(-0.2938787102 0 0.4452750864)
(1.439475723 0 1.828531692)
(1.390630101 0 1.835002155)
(1.704724748 0 2.054367966)
(2.351986939 0 2.517277617)
(-0.3228833624 0 0.7178618949)
(-0.2814447692 0 0.6587052634)
(-0.3172985546 0 0.5561471767)
(-0.2525890565 0 0.6473244397)
(-0.2104900458 0 0.1990573222)
(1.385491475 0 1.702990001)
(1.440064999 0 1.7731415)
(0.0538002496 0 0.8745244594)
(0.0362292517 0 0.8005436976)
(-0.08838176765 0 0.81420495)
(0.03251508688 0 -0.1312255743)
(-0.06279592521 0 -0.03162579923)
(-0.420633907 0 -0.1071947815)
(0.1238600852 0 -0.1945504428)
(0.1257982955 0 -0.163086742)
(0.08128820662 0 -0.1592811208)
(0.7731896701 0 -1.158006271)
(0.7864545163 0 -1.164686796)
(0.802025205 0 -1.182193448)
(0.2040465536 0 -0.219473299)
(0.1996065991 0 -0.2114268822)
(0.1987473448 0 -0.1843533645)
(0.1640917956 0 -0.1733691263)
(0.769332344 0 -1.099222892)
(0.7757966023 0 -1.086957705)
(0.7851406509 0 -1.140451743)
(0.6382947591 0 0.2901959939)
(0.2627664018 0 -0.2280843231)
(0.2411881248 0 -0.2263534427)
(-0.3971187963 0 0.4560702945)
(-0.138106492 0 -0.820474827)
(-0.1515142021 0 -0.7908048755)
(0.1303252947 0 -0.3909869059)
(-0.3449186772 0 0.5391142418)
(-0.3285389167 0 0.5469845895)
(-0.1034647869 0 -1.290813718)
(-0.1208632218 0 -1.296339451)
(-0.2345903705 0 -1.072177496)
(0.214632775 0 0.3236268092)
(0.1025583302 0 0.3905428311)
(-0.181795927 0 0.485236482)
(0.3199364145 0 -0.735036416)
(0.3285567052 0 -0.7262990542)
(0.2964016589 0 -0.8089209572)
(0.2360720842 0 0.238599936)
(0.1866043127 0 0.2711568873)
(0.1782433429 0 0.3326975237)
(0.2679956747 0 -0.5849571046)
(0.2864763073 0 -0.6108582762)
(0.3067546299 0 -0.6515105774)
(1.417230876 0 0.965942201)
(1.33538086 0 1.013682113)
(0.02404528197 0 0.647619789)
(0.2590682487 0 -0.6123668927)
(0.274400342 0 -0.6228129009)
(0.2725389395 0 -0.6062168488)
(1.136809944 0 0.4584626187)
(0.9755994033 0 0.4361675768)
(1.153252606 0 0.6599151157)
(0.3043589886 0 -0.660673511)
(0.2866120644 0 -0.6447548139)
(0.6565169379 0 0.1610368091)
(0.787215935 0 0.3079746706)
(0.326770652 0 -0.6807334017)
(0.3185504542 0 -0.6732766852)
(0.2077463446 0 0.3248321198)
(0.3247618237 0 -0.6843875246)
(0.3130392517 0 -0.6861291818)
(0.310311524 0 -0.6879025568)
(0.3238769739 0 -0.6929555461)
(0.1498142863 0 0.1239544429)
(0.2397106269 0 0.1956044263)
(0.1924380624 0 0.2484769186)
(0.3247054548 0 -0.681036065)
(0.3195729123 0 -0.6780107691)
(0.3070444146 0 -0.6806204872)
(0.126154121 0 0.04774604036)
(0.2713916615 0 0.1347224982)
(0.2689341269 0 0.1451749431)
(0.3256003478 0 -0.641674053)
(0.3252248182 0 -0.661550653)
(0.1728369793 0 -0.08529589838)
(0.4024581536 0 -0.5712236426)
(0.4290520887 0 -0.5757142903)
(0.380390326 0 -0.5943672213)
(0.1185921023 0 -0.1682091705)
(0.2218389239 0 -0.1321512546)
(0.2004052013 0 -0.1004962185)
(0.4678404826 0 -0.5716325246)
(0.4913066696 0 -0.5880413134)
(0.4945723586 0 -0.6109010177)
(0.4883965144 0 -0.6151851179)
(-0.8701718536 0 -0.9597726355)
(0.05242669149 0 -0.2136514928)
(-0.1474385974 0 -0.3267828043)
(0.4832004193 0 -0.5790147461)
(0.4946368294 0 -0.5945058305)
(-0.9591080118 0 -1.089805679)
(-0.009489225075 0 0.4182536377)
(0.5204785369 0 -0.6547404452)
(0.5086845899 0 -0.6301292899)
(-1.005211105 0 -0.9144733012)
(0.6090540306 0 0.1956016444)
(0.6106201284 0 -0.6574772767)
(0.5694532022 0 -0.6623754593)
(0.6278401138 0 -0.6104621095)
(0.6283766251 0 -0.553603352)
(0.5792225349 0 -0.5661933277)
(0.0488446605 0 0.06075961003)
(-0.2608434491 0 0.004616498824)
(-0.3212670886 0 -0.01498866029)
(-0.4342817962 0 0.01263842528)
(0.5417844993 0 0.1303661921)
(0.6572651635 0 -0.5394451971)
(0.6259302398 0 -0.4930284679)
(0.5945596927 0 -0.4720775548)
(0.5963346108 0 -0.4727889365)
(0.05920663141 0 0.03480786831)
(0.06207350676 0 0.05743824118)
(0.04960190156 0 0.07728747382)
(0.5642764838 0 -0.4568796403)
(0.5614598731 0 -0.4486192142)
(0.5661327648 0 -0.4328769473)
(0.5587737222 0 -0.4332580073)
(0.5543072666 0 -0.4088235028)
(0.52899489 0 -0.3754056834)
(0.5179032947 0 -0.3653307139)
(0.2411489003 0 -0.1220654464)
(0.2308944431 0 -0.1079127615)
(0.2400303947 0 -0.1036662666)
(0.2236918454 0 -0.09944294288)
(0.2081923378 0 -0.09000225846)
(0.2045170156 0 -0.08653474718)
(0.1607479218 0 -0.03819330652)
(0.5296543042 0 -0.3710670031)
(0.4862111046 0 -0.3057567354)
(0.4608882725 0 -0.276896287)
(0.4486413116 0 -0.2652206742)
(0.4577923536 0 -0.2760736253)
(0.4504455781 0 -0.2781474484)
(0.4230786578 0 -0.2569755626)
(0.4371333286 0 -0.2746979971)
(0.4203583512 0 -0.2664327558)
(0.3926754331 0 -0.2468881961)
(0.4025799504 0 -0.2558286981)
(0.3916245541 0 -0.2453311614)
(0.3673729677 0 -0.2236727062)
(0.4002889276 0 -0.2390507929)
(0.4367992987 0 -0.2384902461)
(0.4105931082 0 -0.2086365106)
(0.5276091604 0 -0.2555803313)
(0.6898591275 0 -0.3045400598)
(0.4731212461 0 -0.1870530633)
(-1.048130574 0 -0.8090188426)
(-1.176427424 0 -0.8691624768)
(-1.076089196 0 -0.7681384267)
(-1.309122468 0 -0.9211485454)
(-0.1374321037 0 -0.1254511825)
(0.2598308484 0 -0.1056301521)
(-0.4825111052 0 -0.4102913434)
(-0.6902344884 0 -0.5685145106)
(-0.5940088373 0 -0.4827002281)
(-0.7453116731 0 -0.6016009459)
(-0.6277671298 0 -0.5097059659)
(-0.5526913701 0 -0.4317931851)
(-0.4070251316 0 -0.3655543465)
(0.1771626086 0 -0.06984248275)
(0.09670187203 0 -0.009215668304)
(0.3405313961 0 -0.1921857423)
(0.62624492 0 -0.4150487153)