/*--------------------------------*- C++ -*----------------------------------*\
| =========                 |                                                 |
| \\      /  F ield         | OpenFOAM: The Open Source CFD Toolbox           |
|  \\    /   O peration     | Version:  2.1.x                                 |
|   \\  /    A nd           | Web:      www.OpenFOAM.org                      |
|    \\/     M anipulation  |                                                 |
\*---------------------------------------------------------------------------*/
FoamFile
{
    version     2.0;
    format      ascii;
    class       scalarField;
    location    "1.6";
    object      age;
}
// * * * * * * * * * * * * * * * * * * * * * * * * * * * * * * * * * * * * * //


28
(
0.005809891818
0.005230340367
0.005017528784
0.004832328634
0.004628447136
0.004422521266
0.004230755791
0.00403300965
0.003829396036
0.003613104601
0.00344073343
0.003220964291
0.003009480288
0.002827890027
0.002616777031
0.002421420863
0.002222124806
0.002005447879
0.001836386529
0.001626867999
0.001444641122
0.001230038637
0.001012785969
0.0008127145115
0.0006144758894
0.0004209425501
0.0002262961829
1.828656024e-05
)


// ************************************************************************* //
