/*--------------------------------*- C++ -*----------------------------------*\
| =========                 |                                                 |
| \\      /  F ield         | OpenFOAM: The Open Source CFD Toolbox           |
|  \\    /   O peration     | Version:  2.1.x                                 |
|   \\  /    A nd           | Web:      www.OpenFOAM.org                      |
|    \\/     M anipulation  |                                                 |
\*---------------------------------------------------------------------------*/
FoamFile
{
    version     2.0;
    format      ascii;
    class       scalarField;
    location    "1.6";
    object      d;
}
// * * * * * * * * * * * * * * * * * * * * * * * * * * * * * * * * * * * * * //


28
(
0.0005824488738
0.0006183707887
0.000714551054
0.0005402881526
0.0005018189827
0.0005556586814
0.001157378139
0.0005004974927
0.000887435489
0.0005901741956
0.0005032453511
0.0005729599923
0.0006001888154
0.000870918976
0.0005028321887
0.0006953597653
0.0005000789661
0.0005001216509
0.0005027930565
0.0007780224528
0.0005518380085
0.0005946672091
0.0006287008654
0.0008374377297
0.0005073334608
0.0005068089169
0.0006865533254
0.000518031901
)


// ************************************************************************* //
