/*--------------------------------*- C++ -*----------------------------------*\
| =========                 |                                                 |
| \\      /  F ield         | OpenFOAM: The Open Source CFD Toolbox           |
|  \\    /   O peration     | Version:  2.1.x                                 |
|   \\  /    A nd           | Web:      www.OpenFOAM.org                      |
|    \\/     M anipulation  |                                                 |
\*---------------------------------------------------------------------------*/
FoamFile
{
    version     2.0;
    format      ascii;
    class       scalarField;
    location    "1.6";
    object      mass0;
}
// * * * * * * * * * * * * * * * * * * * * * * * * * * * * * * * * * * * * * //


28
(
1.034598994e-07
1.23807091e-07
1.910286097e-07
8.258001469e-08
6.61667616e-08
8.983031744e-08
8.117540193e-07
6.564540632e-08
3.659392549e-07
1.076314702e-07
6.673258329e-08
9.848532352e-08
1.132041417e-07
3.458851225e-07
6.656835665e-08
1.760464599e-07
6.548086175e-08
6.549763078e-08
6.655281608e-08
2.465897461e-07
8.79900271e-08
1.101084367e-07
1.301160279e-07
3.075078403e-07
6.83721352e-08
6.816027976e-08
1.694421477e-07
7.27893996e-08
)


// ************************************************************************* //
