/*--------------------------------*- C++ -*----------------------------------*\
| =========                 |                                                 |
| \\      /  F ield         | OpenFOAM: The Open Source CFD Toolbox           |
|  \\    /   O peration     | Version:  2.1.x                                 |
|   \\  /    A nd           | Web:      www.OpenFOAM.org                      |
|    \\/     M anipulation  |                                                 |
\*---------------------------------------------------------------------------*/
FoamFile
{
    version     2.0;
    format      ascii;
    class       scalarField;
    location    "1.6";
    object      nParticle;
}
// * * * * * * * * * * * * * * * * * * * * * * * * * * * * * * * * * * * * * //


28
(
1.401624644
1.02472411
0.785041194
1.575993118
2.161637503
1.604927596
0.1650804231
2.106043322
0.3885240621
1.360349489
1.86807087
1.387102022
1.372269387
0.3543052134
2.227532352
0.8339193951
1.995477719
2.101810742
1.985884748
0.6075502723
1.437702188
1.34572715
1.103440346
0.4505269409
1.872567501
2.158460081
0.7869952707
1.831999847
)


// ************************************************************************* //
