/*--------------------------------*- C++ -*----------------------------------*\
| =========                 |                                                 |
| \\      /  F ield         | OpenFOAM: The Open Source CFD Toolbox           |
|  \\    /   O peration     | Version:  2.1.x                                 |
|   \\  /    A nd           | Web:      www.OpenFOAM.org                      |
|    \\/     M anipulation  |                                                 |
\*---------------------------------------------------------------------------*/
FoamFile
{
    version     2.0;
    format      ascii;
    class       Cloud<basicReactingParcel>;
    location    "1.6";
    object      positions;
}
// * * * * * * * * * * * * * * * * * * * * * * * * * * * * * * * * * * * * * //

28
(
(0.01241181695 0.001646956456 0.00278886416) 35035
(0.01046186147 0.002348095241 0.005163071937) 45474
(0.01265349978 0.0009591035622 0.01277719473) 8750
(0.01123187768 0.002391934954 0.01710518343) 111056
(0.009744249481 0.003176073127 0.01677594924) 111405
(0.007947938138 0.003938617216 0.00962718466) 67934
(0.0186270018 0.005828035219 0.007953464752) 59365
(0.01209336554 0.004026497368 0.01365309918) 92465
(0.01140720532 0.004550703046 0.01227930367) 82858
(0.01365459567 0.005249116757 0.01256526324) 87970
(0.01269359855 0.005751443265 0.01324051126) 88163
(0.008092899319 0.007772904313 0.01487954767) 98510
(0.01092673579 0.008120425888 0.0165684294) 108328
(0.01316988215 0.008803533257 0.008054242611) 60225
(0.009246750779 0.008889111335 0.01234575023) 84213
(0.01467259409 0.009683883487 0.01533842147) 104048
(0.01345515881 0.00945719005 0.01182158883) 8421
(0.01508768777 0.01071551473 0.01366607193) 94452
(0.01400729044 0.01076799696 0.0117546539) 84639
(0.01228937679 0.01136900521 0.01097343553) 79921
(0.01231649373 0.01224134796 0.01463583986) 99721
(0.01325913115 0.01239312889 0.01259341127) 89924
(0.01249380967 0.01296387584 0.01242961356) 85215
(0.01200501535 0.01378485115 0.01339082282) 10069
(0.01234838123 0.01442030459 0.01156520506) 80707
(0.01218587453 0.01486741102 0.01295989136) 90509
(0.01250076599 0.01532157001 0.01252410066) 9380
(0.01250744381 0.01594592821 0.01249448877) 85811
)


// ************************************************************************* //
