/*--------------------------------*- C++ -*----------------------------------*\
| =========                 |                                                 |
| \\      /  F ield         | OpenFOAM: The Open Source CFD Toolbox           |
|  \\    /   O peration     | Version:  2.1.x                                 |
|   \\  /    A nd           | Web:      www.OpenFOAM.org                      |
|    \\/     M anipulation  |                                                 |
\*---------------------------------------------------------------------------*/
FoamFile
{
    version     2.0;
    format      ascii;
    class       vectorField;
    location    "1.6";
    object      U;
}
// * * * * * * * * * * * * * * * * * * * * * * * * * * * * * * * * * * * * * //


28
(
(-0.01497139956 -2.465264023 -1.648721497)
(-0.3852892492 -2.606405754 -1.386971232)
(0.0303243256 -2.996013839 0.05476062303)
(-0.2590976708 -2.804048912 0.9409126217)
(-0.5873364669 -2.75588017 0.911338274)
(-1.017816557 -2.7185748 -0.6423460636)
(1.442838873 -2.416211936 -1.070657071)
(-0.09963024892 -2.953457796 0.28252293)
(-0.2839687311 -2.994022949 -0.05734916029)
(0.3168848703 -2.968416336 0.01791183983)
(0.05570033106 -2.965547176 0.2130528451)
(-1.357594504 -2.550196947 0.7330127162)
(-0.5192094363 -2.615258975 1.342665095)
(0.2359997123 -2.549284904 -1.566241864)
(-1.233663472 -2.709435926 -0.05849299974)
(0.8932608163 -2.608841164 1.167015363)
(0.4270015345 -2.935942391 -0.3032821448)
(1.282629284 -2.629276186 0.5779824058)
(0.8163322079 -2.842710687 -0.4036713929)
(-0.1291355515 -2.847414639 -0.9359545179)
(-0.1265500748 -2.59925333 1.472923476)
(0.6153947955 -2.930076846 0.07572447688)
(-0.006098850104 -2.996336434 -0.0693462591)
(-0.6083454913 -2.726555514 1.094838086)
(-0.2462912095 -2.569197116 -1.518491281)
(-0.7452834603 -2.689322368 1.091122686)
(0.003383335026 -2.997813331 0.1064516274)
(0.407029783 -2.95681057 -0.3013557885)
)


// ************************************************************************* //
